LIGGGHTS (Version LIGGGHTS-PUBLIC 3.8.0, compiled 2017-12-08-22:42:34 by hwb, git commit unknown)
# Pour biomass particles into fb
log             ../DEM/log.liggghts
