
//   run_liggghts_init_DEM   //

/home/hwb/CFDEM/bubbling_fluidized_bed/fluidizedbedTest/DEM

LIGGGHTS (Version LIGGGHTS-PUBLIC 3.8.0, compiled 2017-12-08-22:31:09 by hwb, git commit unknown)
atom_style      granular
atom_modify     map array
communicate     single vel yes

boundary        f f f
newton          off

units           si

region          reg block -0.05 0.05 -0.05 0.05 -0.01 0.5 units box
create_box      2 reg
Created orthogonal box = (-0.05 -0.05 -0.01) to (0.05 0.05 0.5)
  1 by 1 by 4 MPI processor grid

neighbor        0.0001 bin
neigh_modify    delay 0


# Material properties required for granular pair styles
fix         m1 all property/global youngsModulus peratomtype 6.5e6 6.5e6
fix         m2 all property/global poissonsRatio peratomtype 0.3 0.3
fix         m3 all property/global coefficientRestitution peratomtypepair 2 1 0.8 0.8 0.8
fix         m4 all property/global coefficientFriction peratomtypepair 2 1 0.8 0.8 0.8
fix         m5 all property/global coefficientRollingFriction peratomtypepair 2 0 0.000016 0.000016 0.000016

# pair style
pair_style  gran model hertz tangential history # Hertzian without cohesion
pair_coeff  * *

# timestep, gravity
timestep    0.00001
fix         gravi all gravity 9.81 vector 0.0 0.0 -1.0

##WALLS######################################################################################################
#fix         zwalls1 all wall/gran model hertz tangential history primitive type 1  zplane 0.0             ##
#fix         zwalls2 all wall/gran model hertz tangential history primitive type 1  zplane 0.0553          ##
#fix         cylwalls all wall/gran model hertz tangential history primitive type 1 zcylinder 0.01385 0. 0.##
#############################################################################################################

#import mesh from cad:
fix  fb1 all mesh/surface file STL/fluidizedbedriser1.stl type 1 scale 0.0254

Reading STL file 'STL/fluidizedbedriser1.stl' (mesh processing step 1/3) 
fix  fb2 all mesh/surface file STL/fluidizedbedriser2.stl type 1 scale 0.0254

Reading STL file 'STL/fluidizedbedriser2.stl' (mesh processing step 1/3) 
fix  fbBioin all mesh/surface file STL/fluidizedbedBioin.stl type 1 scale 0.0254

Reading STL file 'STL/fluidizedbedBioin.stl' (mesh processing step 1/3) 
fix  fbGasin all mesh/surface file STL/fluidizedbedGasin.stl type 1 scale 0.0254

Reading STL file 'STL/fluidizedbedGasin.stl' (mesh processing step 1/3) 
fix  fbOut all mesh/surface file STL/fluidizedbedOut.stl type 1 scale 0.0254

Reading STL file 'STL/fluidizedbedOut.stl' (mesh processing step 1/3) 

#use the imported mesh as granular wall

fix	walls all wall/gran model hertz tangential history mesh n_meshes 5 meshes fb1 fb2 fbBioin fbGasin fbOut

# particle distributions and insertion ### insert sand ###
region      bc cylinder z 0.0 0.0 0.0235 0.25 0.254 units box
fix         pts1 all particletemplate/sphere 15485863 atom_type 1 density constant 2500 radius constant 0.0005
fix         pdd1 all particledistribution/discrete 15485867 1 pts1 1.0
Fix particledistribution/discrete (id pdd1): distribution based on mass%:
    pts1: d=1.000000e-03 (max. bounding sphere) mass%=100.000000%
Fix particledistribution/discrete (id pdd1): distribution based on number%:
    pts1: d=1.000000e-03 (max. bounding sphere) number%=100.000000%
fix         ins all insert/rate/region seed 32452843 distributiontemplate pdd1 mass 0.02 massrate 0.01 insert_every 1000 overlapcheck yes vel constant 0. 0. -0.1 region bc ntry_mc 10000

# apply nve integration to all particles that are inserted as single particles
fix         integr all nve/sphere

# screen output
compute         rke all erotate/sphere
thermo_style    custom step atoms ke c_rke vol
thermo          1000
thermo_modify   lost ignore norm no
compute_modify  thermo_temp dynamic yes
WARNING: Changing thermo_temp compute object. This object is deprecated and will be removed in the future. (../compute.cpp:161)

# insert the first particles so that dump is not empty
run         1
Setting up run at Wed Jul 29 11:35:51 2020

Import and parallelization of mesh fb1 containing 9645 triangle(s) successful
Import and parallelization of mesh fb2 containing 1950 triangle(s) successful
Import and parallelization of mesh fbBioin containing 105 triangle(s) successful
Import and parallelization of mesh fbGasin containing 2620 triangle(s) successful
Import and parallelization of mesh fbOut containing 10343 triangle(s) successful
INFO: Resetting random generator for region bc
INFO: Particle insertion ins: 76.394373 particles every 1000 steps - particle rate 7639.437268  (mass rate 1.000000e-02)
      15278 particles (mass 1.999886e-02) within 199000 steps
Memory usage per processor = 48.5072 Mbytes
    Step    Atoms         KinEng            rke         Volume 
       0        0              0              0         0.0051 
insertion: proc 2 at 0 %
insertion: proc 2 at 10 %
insertion: proc 2 at 20 %
insertion: proc 2 at 30 %
insertion: proc 2 at 40 %
insertion: proc 2 at 50 %
insertion: proc 2 at 60 %
insertion: proc 2 at 70 %
insertion: proc 2 at 80 %
insertion: proc 2 at 90 %
insertion: proc 2 at 100 %
INFO: Particle insertion ins: inserted 77 particle templates (mass 1.007928e-04) at step 1
 - a total of 77 particle templates (mass 1.007928e-04) inserted so far.
       1       77  5.0445833e-07              0         0.0051 
Loop time of 0.0284828 on 4 procs for 1 steps with 77 atoms, finish time Wed Jul 29 11:35:52 2020


Pair  time (%) = 6.19888e-06 (0.0217636)
Neigh time (%) = 0.00599986 (21.0649)
Comm  time (%) = 0.000165105 (0.579665)
Outpt time (%) = 0.0064981 (22.8141)
Other time (%) = 0.0158135 (55.5196)

Nlocal:    19.25 ave 77 max 0 min
Histogram: 3 0 0 0 0 0 0 0 0 1
Nghost:    0 ave 0 max 0 min
Histogram: 4 0 0 0 0 0 0 0 0 0
Neighs:    0.25 ave 1 max 0 min
Histogram: 3 0 0 0 0 0 0 0 0 1

Total # of neighbors = 1
Ave neighs/atom = 0.012987
Neighbor list builds = 1
Dangerous builds = 0
# Create imaging information
dump	dumpstl all stl 5000 post/dump*.stl
# dump        dmp all custom 2000 post/dump*.liggghts_init id type x y z ix iy iz vx vy vz fx fy fz omegax omegay omegaz radius
dump        dmp all custom/vtk 2000 post/dump*.liggghts_init.vtk id type x y z ix iy iz vx vy vz fx fy fz omegax omegay omegaz radius


run         350000 upto
Setting up run at Wed Jul 29 11:35:52 2020

Memory usage per processor = 48.5113 Mbytes
    Step    Atoms         KinEng            rke         Volume 
       1       77  5.0445833e-07              0         0.0051 
    1000       77  1.9767567e-06              0         0.0051 
INFO: Particle insertion ins: inserted 76 particle templates (mass 9.948377e-05) at step 1001
 - a total of 153 particle templates (mass 2.002765e-04) inserted so far.
insertion: proc 2 at 0 %
insertion: proc 2 at 10 %
insertion: proc 2 at 20 %
insertion: proc 2 at 30 %
insertion: proc 2 at 40 %
insertion: proc 2 at 50 %
insertion: proc 2 at 60 %
insertion: proc 2 at 70 %
insertion: proc 2 at 80 %
insertion: proc 2 at 90 %
insertion: proc 2 at 100 %
    2000      153  6.3711186e-06              0         0.0051 
insertion: proc 2 at 0 %
insertion: proc 2 at 10 %
insertion: proc 2 at 20 %
insertion: proc 2 at 30 %
insertion: proc 2 at 40 %
insertion: proc 2 at 50 %
insertion: proc 2 at 60 %
insertion: proc 2 at 70 %
insertion: proc 2 at 80 %
insertion: proc 2 at 90 %
insertion: proc 2 at 100 %
INFO: Particle insertion ins: inserted 77 particle templates (mass 1.007928e-04) at step 2001
 - a total of 230 particle templates (mass 3.010693e-04) inserted so far.
    3000      230  1.4171146e-05   8.173401e-10         0.0051 
insertion: proc 2 at 0 %
insertion: proc 2 at 10 %
insertion: proc 2 at 20 %
insertion: proc 2 at 30 %
insertion: proc 2 at 40 %
insertion: proc 2 at 50 %
insertion: proc 2 at 60 %
insertion: proc 2 at 70 %
insertion: proc 2 at 80 %
insertion: proc 2 at 90 %
insertion: proc 2 at 100 %
INFO: Particle insertion ins: inserted 77 particle templates (mass 1.007928e-04) at step 3001
 - a total of 307 particle templates (mass 4.018621e-04) inserted so far.
    4000      307  2.6343377e-05   8.173401e-10         0.0051 
insertion: proc 2 at 0 %
insertion: proc 2 at 10 %
insertion: proc 2 at 20 %
insertion: proc 2 at 30 %
insertion: proc 2 at 40 %
insertion: proc 2 at 50 %
insertion: proc 2 at 60 %
insertion: proc 2 at 70 %
insertion: proc 2 at 80 %
insertion: proc 2 at 90 %
insertion: proc 2 at 100 %
INFO: Particle insertion ins: inserted 76 particle templates (mass 9.948377e-05) at step 4001
 - a total of 383 particle templates (mass 5.013458e-04) inserted so far.
    5000      383  4.3827908e-05  1.9921951e-09         0.0051 
insertion: proc 2 at 0 %
insertion: proc 2 at 10 %
insertion: proc 2 at 20 %
insertion: proc 2 at 30 %
insertion: proc 2 at 40 %
insertion: proc 2 at 50 %
insertion: proc 2 at 60 %
insertion: proc 2 at 70 %
insertion: proc 2 at 80 %
insertion: proc 2 at 90 %
insertion: proc 2 at 100 %
INFO: Particle insertion ins: inserted 76 particle templates (mass 9.948377e-05) at step 5001
 - a total of 459 particle templates (mass 6.008296e-04) inserted so far.
    6000      459  6.7594029e-05  1.9921951e-09         0.0051 
insertion: proc 2 at 0 %
insertion: proc 2 at 10 %
insertion: proc 2 at 20 %
insertion: proc 2 at 30 %
insertion: proc 2 at 40 %
insertion: proc 2 at 50 %
insertion: proc 2 at 60 %
insertion: proc 2 at 70 %
insertion: proc 2 at 80 %
insertion: proc 2 at 90 %
insertion: proc 2 at 100 %
INFO: Particle insertion ins: inserted 76 particle templates (mass 9.948377e-05) at step 6001
 - a total of 535 particle templates (mass 7.003134e-04) inserted so far.
    7000      535  9.8596452e-05  1.9921951e-09         0.0051 
insertion: proc 2 at 0 %
insertion: proc 2 at 10 %
insertion: proc 2 at 20 %
insertion: proc 2 at 30 %
insertion: proc 2 at 40 %
insertion: proc 2 at 50 %
insertion: proc 2 at 60 %
insertion: proc 2 at 70 %
insertion: proc 2 at 80 %
insertion: proc 2 at 90 %
insertion: proc 2 at 100 %
INFO: Particle insertion ins: inserted 76 particle templates (mass 9.948377e-05) at step 7001
 - a total of 611 particle templates (mass 7.997971e-04) inserted so far.
    8000      611  0.00013779257  1.9921951e-09         0.0051 
insertion: proc 2 at 0 %
insertion: proc 2 at 10 %
insertion: proc 2 at 20 %
insertion: proc 2 at 30 %
insertion: proc 2 at 40 %
insertion: proc 2 at 50 %
insertion: proc 2 at 60 %
insertion: proc 2 at 70 %
insertion: proc 2 at 80 %
insertion: proc 2 at 90 %
insertion: proc 2 at 100 %
INFO: Particle insertion ins: inserted 77 particle templates (mass 1.007928e-04) at step 8001
 - a total of 688 particle templates (mass 9.005899e-04) inserted so far.
    9000      688  0.00018616546  1.9922592e-09         0.0051 
insertion: proc 2 at 0 %
insertion: proc 2 at 10 %
insertion: proc 2 at 20 %
insertion: proc 2 at 30 %
insertion: proc 2 at 40 %
insertion: proc 2 at 50 %
insertion: proc 2 at 60 %
insertion: proc 2 at 70 %
insertion: proc 2 at 80 %
insertion: proc 2 at 90 %
insertion: proc 2 at 100 %
INFO: Particle insertion ins: inserted 77 particle templates (mass 1.007928e-04) at step 9001
 - a total of 765 particle templates (mass 1.001383e-03) inserted so far.
   10000      765  0.00024467528  3.4372335e-09         0.0051 
insertion: proc 2 at 0 %
insertion: proc 2 at 10 %
insertion: proc 2 at 20 %
insertion: proc 2 at 30 %
insertion: proc 2 at 40 %
insertion: proc 2 at 50 %
insertion: proc 2 at 60 %
insertion: proc 2 at 70 %
insertion: proc 2 at 80 %
insertion: proc 2 at 90 %
insertion: proc 2 at 100 %
INFO: Particle insertion ins: inserted 77 particle templates (mass 1.007928e-04) at step 10001
 - a total of 842 particle templates (mass 1.102175e-03) inserted so far.
   11000      842  0.00031429779  3.6727143e-09         0.0051 
insertion: proc 2 at 0 %
insertion: proc 2 at 10 %
insertion: proc 2 at 20 %
insertion: proc 2 at 30 %
insertion: proc 2 at 40 %
insertion: proc 2 at 50 %
insertion: proc 2 at 60 %
insertion: proc 2 at 70 %
insertion: proc 2 at 80 %
insertion: proc 2 at 90 %
insertion: proc 2 at 100 %
INFO: Particle insertion ins: inserted 77 particle templates (mass 1.007928e-04) at step 11001
 - a total of 919 particle templates (mass 1.202968e-03) inserted so far.
   12000      919  0.00039600017  4.0713705e-09         0.0051 
insertion: proc 2 at 0 %
insertion: proc 2 at 10 %
insertion: proc 2 at 20 %
insertion: proc 2 at 30 %
insertion: proc 2 at 40 %
insertion: proc 2 at 50 %
insertion: proc 2 at 60 %
insertion: proc 2 at 70 %
insertion: proc 2 at 80 %
insertion: proc 2 at 90 %
insertion: proc 2 at 100 %
INFO: Particle insertion ins: inserted 77 particle templates (mass 1.007928e-04) at step 12001
 - a total of 996 particle templates (mass 1.303761e-03) inserted so far.
   13000      996   0.0004907504  5.5253186e-09         0.0051 
INFO: Particle insertion ins: inserted 76 particle templates (mass 9.948377e-05) at step 13001
 - a total of 1072 particle templates (mass 1.403245e-03) inserted so far.
insertion: proc 2 at 0 %
insertion: proc 2 at 10 %
insertion: proc 2 at 20 %
insertion: proc 2 at 30 %
insertion: proc 2 at 40 %
insertion: proc 2 at 50 %
insertion: proc 2 at 60 %
insertion: proc 2 at 70 %
insertion: proc 2 at 80 %
insertion: proc 2 at 90 %
insertion: proc 2 at 100 %
   14000     1072  0.00059949853  5.5267029e-09         0.0051 
insertion: proc 2 at 0 %
insertion: proc 2 at 10 %
insertion: proc 2 at 20 %
insertion: proc 2 at 30 %
insertion: proc 2 at 40 %
insertion: proc 2 at 50 %
insertion: proc 2 at 60 %
insertion: proc 2 at 70 %
insertion: proc 2 at 80 %
insertion: proc 2 at 90 %
insertion: proc 2 at 100 %
INFO: Particle insertion ins: inserted 76 particle templates (mass 9.948377e-05) at step 14001
 - a total of 1148 particle templates (mass 1.502728e-03) inserted so far.
   15000     1148  0.00072320451  5.5894686e-09         0.0051 
insertion: proc 2 at 0 %
insertion: proc 2 at 10 %
insertion: proc 2 at 20 %
insertion: proc 2 at 30 %
insertion: proc 2 at 40 %
insertion: proc 2 at 50 %
insertion: proc 2 at 60 %
insertion: proc 2 at 70 %
insertion: proc 2 at 80 %
insertion: proc 2 at 90 %
insertion: proc 2 at 100 %
INFO: Particle insertion ins: inserted 76 particle templates (mass 9.948377e-05) at step 15001
 - a total of 1224 particle templates (mass 1.602212e-03) inserted so far.
   16000     1224  0.00086282546  6.6658097e-09         0.0051 
insertion: proc 2 at 0 %
insertion: proc 2 at 10 %
insertion: proc 2 at 20 %
insertion: proc 2 at 30 %
insertion: proc 2 at 40 %
insertion: proc 2 at 50 %
insertion: proc 2 at 60 %
insertion: proc 2 at 70 %
insertion: proc 2 at 80 %
insertion: proc 2 at 90 %
insertion: proc 2 at 100 %
INFO: Particle insertion ins: inserted 76 particle templates (mass 9.948377e-05) at step 16001
 - a total of 1300 particle templates (mass 1.701696e-03) inserted so far.
   17000     1300   0.0010193211  6.6658097e-09         0.0051 
insertion: proc 2 at 0 %
insertion: proc 2 at 10 %
insertion: proc 2 at 20 %
insertion: proc 2 at 30 %
insertion: proc 2 at 40 %
insertion: proc 2 at 50 %
insertion: proc 2 at 60 %
insertion: proc 2 at 70 %
insertion: proc 2 at 80 %
insertion: proc 2 at 90 %
insertion: proc 2 at 100 %
INFO: Particle insertion ins: inserted 76 particle templates (mass 9.948377e-05) at step 17001
 - a total of 1376 particle templates (mass 1.801180e-03) inserted so far.
   18000     1376   0.0011936474  6.6658097e-09         0.0051 
insertion: proc 2 at 0 %
insertion: proc 2 at 10 %
insertion: proc 2 at 20 %
insertion: proc 2 at 30 %
insertion: proc 2 at 40 %
insertion: proc 2 at 50 %
insertion: proc 2 at 60 %
insertion: proc 2 at 70 %
insertion: proc 2 at 80 %
insertion: proc 2 at 90 %
insertion: proc 2 at 100 %
INFO: Particle insertion ins: inserted 77 particle templates (mass 1.007928e-04) at step 18001
 - a total of 1453 particle templates (mass 1.901973e-03) inserted so far.
   19000     1453   0.0013866896  1.8098056e-08         0.0051 
INFO: Particle insertion ins: inserted 77 particle templates (mass 1.007928e-04) at step 19001
 - a total of 1530 particle templates (mass 2.002765e-03) inserted so far.
insertion: proc 2 at 0 %
insertion: proc 2 at 10 %
insertion: proc 2 at 20 %
insertion: proc 2 at 30 %
insertion: proc 2 at 40 %
insertion: proc 2 at 50 %
insertion: proc 2 at 60 %
insertion: proc 2 at 70 %
insertion: proc 2 at 80 %
insertion: proc 2 at 90 %
insertion: proc 2 at 100 %
   20000     1530   0.0015995958  1.8098056e-08         0.0051 
insertion: proc 2 at 0 %
insertion: proc 2 at 10 %
insertion: proc 2 at 20 %
insertion: proc 2 at 30 %
insertion: proc 2 at 40 %
insertion: proc 2 at 50 %
insertion: proc 2 at 60 %
insertion: proc 2 at 70 %
insertion: proc 2 at 80 %
insertion: proc 2 at 90 %
insertion: proc 2 at 100 %
INFO: Particle insertion ins: inserted 77 particle templates (mass 1.007928e-04) at step 20001
 - a total of 1607 particle templates (mass 2.103558e-03) inserted so far.
   21000     1607   0.0018329768  4.1702385e-08         0.0051 
INFO: Particle insertion ins: inserted 76 particle templates (mass 9.948377e-05) at step 21001
 - a total of 1683 particle templates (mass 2.203042e-03) inserted so far.
insertion: proc 2 at 0 %
insertion: proc 2 at 10 %
insertion: proc 2 at 20 %
insertion: proc 2 at 30 %
insertion: proc 2 at 40 %
insertion: proc 2 at 50 %
insertion: proc 2 at 60 %
insertion: proc 2 at 70 %
insertion: proc 2 at 80 %
insertion: proc 2 at 90 %
insertion: proc 2 at 100 %
   22000     1683   0.0020693998  1.5817366e-06         0.0051 
insertion: proc 2 at 0 %
insertion: proc 2 at 10 %
insertion: proc 2 at 20 %
insertion: proc 2 at 30 %
insertion: proc 2 at 40 %
insertion: proc 2 at 50 %
insertion: proc 2 at 60 %
insertion: proc 2 at 70 %
insertion: proc 2 at 80 %
insertion: proc 2 at 90 %
insertion: proc 2 at 100 %
INFO: Particle insertion ins: inserted 76 particle templates (mass 9.948377e-05) at step 22001
 - a total of 1759 particle templates (mass 2.302526e-03) inserted so far.
   23000     1759   0.0022658248  1.1705565e-05         0.0051 
INFO: Particle insertion ins: inserted 76 particle templates (mass 9.948377e-05) at step 23001
 - a total of 1835 particle templates (mass 2.402009e-03) inserted so far.
insertion: proc 2 at 0 %
insertion: proc 2 at 10 %
insertion: proc 2 at 20 %
insertion: proc 2 at 30 %
insertion: proc 2 at 40 %
insertion: proc 2 at 50 %
insertion: proc 2 at 60 %
insertion: proc 2 at 70 %
insertion: proc 2 at 80 %
insertion: proc 2 at 90 %
insertion: proc 2 at 100 %
   24000     1835   0.0023915596  4.0742858e-05         0.0051 
insertion: proc 2 at 0 %
insertion: proc 2 at 10 %
insertion: proc 2 at 20 %
insertion: proc 2 at 30 %
insertion: proc 2 at 40 %
insertion: proc 2 at 50 %
insertion: proc 2 at 60 %
insertion: proc 2 at 70 %
insertion: proc 2 at 80 %
insertion: proc 2 at 90 %
insertion: proc 2 at 100 %
INFO: Particle insertion ins: inserted 76 particle templates (mass 9.948377e-05) at step 24001
 - a total of 1911 particle templates (mass 2.501493e-03) inserted so far.
   25000     1911   0.0024805876  7.6079255e-05         0.0051 
insertion: proc 2 at 0 %
insertion: proc 2 at 10 %
insertion: proc 2 at 20 %
insertion: proc 2 at 30 %
insertion: proc 2 at 40 %
insertion: proc 2 at 50 %
insertion: proc 2 at 60 %
insertion: proc 2 at 70 %
insertion: proc 2 at 80 %
insertion: proc 2 at 90 %
insertion: proc 2 at 100 %
INFO: Particle insertion ins: inserted 77 particle templates (mass 1.007928e-04) at step 25001
 - a total of 1988 particle templates (mass 2.602286e-03) inserted so far.
   26000     1988   0.0025351327  0.00011638885         0.0051 
insertion: proc 2 at 0 %
insertion: proc 2 at 10 %
insertion: proc 2 at 20 %
insertion: proc 2 at 30 %
insertion: proc 2 at 40 %
insertion: proc 2 at 50 %
insertion: proc 2 at 60 %
insertion: proc 2 at 70 %
insertion: proc 2 at 80 %
insertion: proc 2 at 90 %
insertion: proc 2 at 100 %
INFO: Particle insertion ins: inserted 76 particle templates (mass 9.948377e-05) at step 26001
 - a total of 2064 particle templates (mass 2.701770e-03) inserted so far.
   27000     2064   0.0025818219  0.00014962943         0.0051 
insertion: proc 2 at 0 %
insertion: proc 2 at 10 %
insertion: proc 2 at 20 %
insertion: proc 2 at 30 %
insertion: proc 2 at 40 %
insertion: proc 2 at 50 %
insertion: proc 2 at 60 %
insertion: proc 2 at 70 %
insertion: proc 2 at 80 %
insertion: proc 2 at 90 %
insertion: proc 2 at 100 %
INFO: Particle insertion ins: inserted 76 particle templates (mass 9.948377e-05) at step 27001
 - a total of 2140 particle templates (mass 2.801253e-03) inserted so far.
   28000     2140   0.0026253188  0.00018375838         0.0051 
insertion: proc 2 at 0 %
insertion: proc 2 at 10 %
insertion: proc 2 at 20 %
insertion: proc 2 at 30 %
insertion: proc 2 at 40 %
insertion: proc 2 at 50 %
insertion: proc 2 at 60 %
insertion: proc 2 at 70 %
insertion: proc 2 at 80 %
insertion: proc 2 at 90 %
insertion: proc 2 at 100 %
INFO: Particle insertion ins: inserted 77 particle templates (mass 1.007928e-04) at step 28001
 - a total of 2217 particle templates (mass 2.902046e-03) inserted so far.
   29000     2217    0.002647222  0.00022380786         0.0051 
insertion: proc 2 at 0 %
insertion: proc 2 at 10 %
insertion: proc 2 at 20 %
insertion: proc 2 at 30 %
insertion: proc 2 at 40 %
insertion: proc 2 at 50 %
insertion: proc 2 at 60 %
insertion: proc 2 at 70 %
insertion: proc 2 at 80 %
insertion: proc 2 at 90 %
insertion: proc 2 at 100 %
INFO: Particle insertion ins: inserted 76 particle templates (mass 9.948377e-05) at step 29001
 - a total of 2293 particle templates (mass 3.001530e-03) inserted so far.
   30000     2293   0.0026608392  0.00025640946         0.0051 
insertion: proc 2 at 0 %
insertion: proc 2 at 10 %
insertion: proc 2 at 20 %
insertion: proc 2 at 30 %
insertion: proc 2 at 40 %
insertion: proc 2 at 50 %
insertion: proc 2 at 60 %
insertion: proc 2 at 70 %
insertion: proc 2 at 80 %
insertion: proc 2 at 90 %
insertion: proc 2 at 100 %
INFO: Particle insertion ins: inserted 77 particle templates (mass 1.007928e-04) at step 30001
 - a total of 2370 particle templates (mass 3.102323e-03) inserted so far.
   31000     2370    0.002697143  0.00027697218         0.0051 
insertion: proc 2 at 0 %
insertion: proc 2 at 10 %
insertion: proc 2 at 20 %
insertion: proc 2 at 30 %
insertion: proc 2 at 40 %
insertion: proc 2 at 50 %
insertion: proc 2 at 60 %
insertion: proc 2 at 70 %
insertion: proc 2 at 80 %
insertion: proc 2 at 90 %
insertion: proc 2 at 100 %
INFO: Particle insertion ins: inserted 76 particle templates (mass 9.948377e-05) at step 31001
 - a total of 2446 particle templates (mass 3.201807e-03) inserted so far.
   32000     2446   0.0027133051  0.00030775882         0.0051 
insertion: proc 2 at 0 %
insertion: proc 2 at 10 %
insertion: proc 2 at 20 %
insertion: proc 2 at 30 %
insertion: proc 2 at 40 %
insertion: proc 2 at 50 %
insertion: proc 2 at 60 %
insertion: proc 2 at 70 %
insertion: proc 2 at 80 %
insertion: proc 2 at 90 %
insertion: proc 2 at 100 %
INFO: Particle insertion ins: inserted 77 particle templates (mass 1.007928e-04) at step 32001
 - a total of 2523 particle templates (mass 3.302599e-03) inserted so far.
   33000     2523   0.0027291344  0.00033006504         0.0051 
insertion: proc 2 at 0 %
insertion: proc 2 at 10 %
insertion: proc 2 at 20 %
insertion: proc 2 at 30 %
insertion: proc 2 at 40 %
insertion: proc 2 at 50 %
insertion: proc 2 at 60 %
insertion: proc 2 at 70 %
insertion: proc 2 at 80 %
insertion: proc 2 at 90 %
insertion: proc 2 at 100 %
INFO: Particle insertion ins: inserted 76 particle templates (mass 9.948377e-05) at step 33001
 - a total of 2599 particle templates (mass 3.402083e-03) inserted so far.
   34000     2599    0.002725759  0.00035087177         0.0051 
insertion: proc 2 at 0 %
insertion: proc 2 at 10 %
insertion: proc 2 at 20 %
insertion: proc 2 at 30 %
insertion: proc 2 at 40 %
insertion: proc 2 at 50 %
insertion: proc 2 at 60 %
insertion: proc 2 at 70 %
insertion: proc 2 at 80 %
insertion: proc 2 at 90 %
insertion: proc 2 at 100 %
INFO: Particle insertion ins: inserted 77 particle templates (mass 1.007928e-04) at step 34001
 - a total of 2676 particle templates (mass 3.502876e-03) inserted so far.
   35000     2676   0.0027494811  0.00036968172         0.0051 
insertion: proc 2 at 0 %
insertion: proc 2 at 10 %
insertion: proc 2 at 20 %
insertion: proc 2 at 30 %
insertion: proc 2 at 40 %
insertion: proc 2 at 50 %
insertion: proc 2 at 60 %
insertion: proc 2 at 70 %
insertion: proc 2 at 80 %
insertion: proc 2 at 90 %
insertion: proc 2 at 100 %
INFO: Particle insertion ins: inserted 77 particle templates (mass 1.007928e-04) at step 35001
 - a total of 2753 particle templates (mass 3.603669e-03) inserted so far.
   36000     2753   0.0027347215  0.00039405432         0.0051 
insertion: proc 2 at 0 %
insertion: proc 2 at 10 %
insertion: proc 2 at 20 %
insertion: proc 2 at 30 %
insertion: proc 2 at 40 %
insertion: proc 2 at 50 %
insertion: proc 2 at 60 %
insertion: proc 2 at 70 %
insertion: proc 2 at 80 %
insertion: proc 2 at 90 %
insertion: proc 2 at 100 %
INFO: Particle insertion ins: inserted 76 particle templates (mass 9.948377e-05) at step 36001
 - a total of 2829 particle templates (mass 3.703152e-03) inserted so far.
   37000     2829   0.0027542636  0.00040121423         0.0051 
insertion: proc 2 at 0 %
insertion: proc 2 at 10 %
insertion: proc 2 at 20 %
insertion: proc 2 at 30 %
insertion: proc 2 at 40 %
insertion: proc 2 at 50 %
insertion: proc 2 at 60 %
insertion: proc 2 at 70 %
insertion: proc 2 at 80 %
insertion: proc 2 at 90 %
insertion: proc 2 at 100 %
INFO: Particle insertion ins: inserted 77 particle templates (mass 1.007928e-04) at step 37001
 - a total of 2906 particle templates (mass 3.803945e-03) inserted so far.
   38000     2906   0.0027896765  0.00039930125         0.0051 
insertion: proc 2 at 0 %
insertion: proc 2 at 10 %
insertion: proc 2 at 20 %
insertion: proc 2 at 30 %
insertion: proc 2 at 40 %
insertion: proc 2 at 50 %
insertion: proc 2 at 60 %
insertion: proc 2 at 70 %
insertion: proc 2 at 80 %
insertion: proc 2 at 90 %
insertion: proc 2 at 100 %
INFO: Particle insertion ins: inserted 77 particle templates (mass 1.007928e-04) at step 38001
 - a total of 2983 particle templates (mass 3.904738e-03) inserted so far.
   39000     2983   0.0028087071  0.00041082582         0.0051 
insertion: proc 2 at 0 %
insertion: proc 2 at 10 %
insertion: proc 2 at 20 %
insertion: proc 2 at 30 %
insertion: proc 2 at 40 %
insertion: proc 2 at 50 %
insertion: proc 2 at 60 %
insertion: proc 2 at 70 %
insertion: proc 2 at 80 %
insertion: proc 2 at 90 %
insertion: proc 2 at 100 %
INFO: Particle insertion ins: inserted 76 particle templates (mass 9.948377e-05) at step 39001
 - a total of 3059 particle templates (mass 4.004222e-03) inserted so far.
   40000     3059   0.0028098119  0.00043572534         0.0051 
insertion: proc 2 at 0 %
insertion: proc 2 at 10 %
insertion: proc 2 at 20 %
insertion: proc 2 at 30 %
insertion: proc 2 at 40 %
insertion: proc 2 at 50 %
insertion: proc 2 at 60 %
insertion: proc 2 at 70 %
insertion: proc 2 at 80 %
insertion: proc 2 at 90 %
insertion: proc 2 at 100 %
INFO: Particle insertion ins: inserted 76 particle templates (mass 9.948377e-05) at step 40001
 - a total of 3135 particle templates (mass 4.103705e-03) inserted so far.
   41000     3135   0.0028146777   0.0004450698         0.0051 
insertion: proc 2 at 0 %
insertion: proc 2 at 10 %
insertion: proc 2 at 20 %
insertion: proc 2 at 30 %
insertion: proc 2 at 40 %
insertion: proc 2 at 50 %
insertion: proc 2 at 60 %
insertion: proc 2 at 70 %
insertion: proc 2 at 80 %
insertion: proc 2 at 90 %
insertion: proc 2 at 100 %
INFO: Particle insertion ins: inserted 76 particle templates (mass 9.948377e-05) at step 41001
 - a total of 3211 particle templates (mass 4.203189e-03) inserted so far.
   42000     3211   0.0028089008  0.00046012472         0.0051 
insertion: proc 2 at 0 %
insertion: proc 2 at 10 %
insertion: proc 2 at 20 %
insertion: proc 2 at 30 %
insertion: proc 2 at 40 %
insertion: proc 2 at 50 %
insertion: proc 2 at 60 %
insertion: proc 2 at 70 %
insertion: proc 2 at 80 %
insertion: proc 2 at 90 %
insertion: proc 2 at 100 %
INFO: Particle insertion ins: inserted 76 particle templates (mass 9.948377e-05) at step 42001
 - a total of 3287 particle templates (mass 4.302673e-03) inserted so far.
   43000     3287   0.0028158019  0.00046111156         0.0051 
insertion: proc 2 at 0 %
insertion: proc 2 at 10 %
insertion: proc 2 at 20 %
insertion: proc 2 at 30 %
insertion: proc 2 at 40 %
insertion: proc 2 at 50 %
insertion: proc 2 at 60 %
insertion: proc 2 at 70 %
insertion: proc 2 at 80 %
insertion: proc 2 at 90 %
insertion: proc 2 at 100 %
INFO: Particle insertion ins: inserted 77 particle templates (mass 1.007928e-04) at step 43001
 - a total of 3364 particle templates (mass 4.403466e-03) inserted so far.
   44000     3364   0.0028388295  0.00046737071         0.0051 
insertion: proc 2 at 0 %
insertion: proc 2 at 10 %
insertion: proc 2 at 20 %
insertion: proc 2 at 30 %
insertion: proc 2 at 40 %
insertion: proc 2 at 50 %
insertion: proc 2 at 60 %
insertion: proc 2 at 70 %
insertion: proc 2 at 80 %
insertion: proc 2 at 90 %
insertion: proc 2 at 100 %
INFO: Particle insertion ins: inserted 76 particle templates (mass 9.948377e-05) at step 44001
 - a total of 3440 particle templates (mass 4.502949e-03) inserted so far.
   45000     3440   0.0028292505  0.00048055546         0.0051 
insertion: proc 2 at 0 %
insertion: proc 2 at 10 %
insertion: proc 2 at 20 %
insertion: proc 2 at 30 %
insertion: proc 2 at 40 %
insertion: proc 2 at 50 %
insertion: proc 2 at 60 %
insertion: proc 2 at 70 %
insertion: proc 2 at 80 %
insertion: proc 2 at 90 %
insertion: proc 2 at 100 %
INFO: Particle insertion ins: inserted 76 particle templates (mass 9.948377e-05) at step 45001
 - a total of 3516 particle templates (mass 4.602433e-03) inserted so far.
   46000     3516   0.0028524741  0.00047315031         0.0051 
insertion: proc 2 at 0 %
insertion: proc 2 at 10 %
insertion: proc 2 at 20 %
insertion: proc 2 at 30 %
insertion: proc 2 at 40 %
insertion: proc 2 at 50 %
insertion: proc 2 at 60 %
insertion: proc 2 at 70 %
insertion: proc 2 at 80 %
insertion: proc 2 at 90 %
insertion: proc 2 at 100 %
INFO: Particle insertion ins: inserted 76 particle templates (mass 9.948377e-05) at step 46001
 - a total of 3592 particle templates (mass 4.701917e-03) inserted so far.
   47000     3592   0.0028492541  0.00046704068         0.0051 
insertion: proc 2 at 0 %
insertion: proc 2 at 10 %
insertion: proc 2 at 20 %
insertion: proc 2 at 30 %
insertion: proc 2 at 40 %
insertion: proc 2 at 50 %
insertion: proc 2 at 60 %
insertion: proc 2 at 70 %
insertion: proc 2 at 80 %
insertion: proc 2 at 90 %
insertion: proc 2 at 100 %
INFO: Particle insertion ins: inserted 76 particle templates (mass 9.948377e-05) at step 47001
 - a total of 3668 particle templates (mass 4.801401e-03) inserted so far.
   48000     3668   0.0028240272  0.00046137444         0.0051 
insertion: proc 2 at 0 %
insertion: proc 2 at 10 %
insertion: proc 2 at 20 %
insertion: proc 2 at 30 %
insertion: proc 2 at 40 %
insertion: proc 2 at 50 %
insertion: proc 2 at 60 %
insertion: proc 2 at 70 %
insertion: proc 2 at 80 %
insertion: proc 2 at 90 %
insertion: proc 2 at 100 %
INFO: Particle insertion ins: inserted 77 particle templates (mass 1.007928e-04) at step 48001
 - a total of 3745 particle templates (mass 4.902194e-03) inserted so far.
   49000     3745    0.002809393  0.00045244876         0.0051 
insertion: proc 2 at 0 %
insertion: proc 2 at 10 %
insertion: proc 2 at 20 %
insertion: proc 2 at 30 %
insertion: proc 2 at 40 %
insertion: proc 2 at 50 %
insertion: proc 2 at 60 %
insertion: proc 2 at 70 %
insertion: proc 2 at 80 %
insertion: proc 2 at 90 %
insertion: proc 2 at 100 %
INFO: Particle insertion ins: inserted 77 particle templates (mass 1.007928e-04) at step 49001
 - a total of 3822 particle templates (mass 5.002986e-03) inserted so far.
   50000     3822   0.0028030136  0.00044561269         0.0051 
insertion: proc 2 at 0 %
insertion: proc 2 at 10 %
insertion: proc 2 at 20 %
insertion: proc 2 at 30 %
insertion: proc 2 at 40 %
insertion: proc 2 at 50 %
insertion: proc 2 at 60 %
insertion: proc 2 at 70 %
insertion: proc 2 at 80 %
insertion: proc 2 at 90 %
insertion: proc 2 at 100 %
INFO: Particle insertion ins: inserted 77 particle templates (mass 1.007928e-04) at step 50001
 - a total of 3899 particle templates (mass 5.103779e-03) inserted so far.
   51000     3899   0.0027934505  0.00043008355         0.0051 
insertion: proc 2 at 0 %
insertion: proc 2 at 10 %
insertion: proc 2 at 20 %
insertion: proc 2 at 30 %
insertion: proc 2 at 40 %
insertion: proc 2 at 50 %
insertion: proc 2 at 60 %
insertion: proc 2 at 70 %
insertion: proc 2 at 80 %
insertion: proc 2 at 90 %
insertion: proc 2 at 100 %
INFO: Particle insertion ins: inserted 77 particle templates (mass 1.007928e-04) at step 51001
 - a total of 3976 particle templates (mass 5.204572e-03) inserted so far.
   52000     3976   0.0027831393  0.00041925837         0.0051 
insertion: proc 2 at 0 %
insertion: proc 2 at 10 %
insertion: proc 2 at 20 %
insertion: proc 2 at 30 %
insertion: proc 2 at 40 %
insertion: proc 2 at 50 %
insertion: proc 2 at 60 %
insertion: proc 2 at 70 %
insertion: proc 2 at 80 %
insertion: proc 2 at 90 %
insertion: proc 2 at 100 %
INFO: Particle insertion ins: inserted 76 particle templates (mass 9.948377e-05) at step 52001
 - a total of 4052 particle templates (mass 5.304056e-03) inserted so far.
   53000     4052   0.0027736307  0.00040387324         0.0051 
insertion: proc 2 at 0 %
insertion: proc 2 at 10 %
insertion: proc 2 at 20 %
insertion: proc 2 at 30 %
insertion: proc 2 at 40 %
insertion: proc 2 at 50 %
insertion: proc 2 at 60 %
insertion: proc 2 at 70 %
insertion: proc 2 at 80 %
insertion: proc 2 at 90 %
insertion: proc 2 at 100 %
INFO: Particle insertion ins: inserted 76 particle templates (mass 9.948377e-05) at step 53001
 - a total of 4128 particle templates (mass 5.403539e-03) inserted so far.
   54000     4128   0.0027640941  0.00039009376         0.0051 
insertion: proc 2 at 0 %
insertion: proc 2 at 10 %
insertion: proc 2 at 20 %
insertion: proc 2 at 30 %
insertion: proc 2 at 40 %
insertion: proc 2 at 50 %
insertion: proc 2 at 60 %
insertion: proc 2 at 70 %
insertion: proc 2 at 80 %
insertion: proc 2 at 90 %
insertion: proc 2 at 100 %
INFO: Particle insertion ins: inserted 77 particle templates (mass 1.007928e-04) at step 54001
 - a total of 4205 particle templates (mass 5.504332e-03) inserted so far.
   55000     4205   0.0027666024   0.0003713269         0.0051 
insertion: proc 2 at 0 %
insertion: proc 2 at 10 %
insertion: proc 2 at 20 %
insertion: proc 2 at 30 %
insertion: proc 2 at 40 %
insertion: proc 2 at 50 %
insertion: proc 2 at 60 %
insertion: proc 2 at 70 %
insertion: proc 2 at 80 %
insertion: proc 2 at 90 %
insertion: proc 2 at 100 %
INFO: Particle insertion ins: inserted 76 particle templates (mass 9.948377e-05) at step 55001
 - a total of 4281 particle templates (mass 5.603816e-03) inserted so far.
   56000     4281   0.0027157804  0.00036834481         0.0051 
insertion: proc 2 at 0 %
insertion: proc 2 at 10 %
insertion: proc 2 at 20 %
insertion: proc 2 at 30 %
insertion: proc 2 at 40 %
insertion: proc 2 at 50 %
insertion: proc 2 at 60 %
insertion: proc 2 at 70 %
insertion: proc 2 at 80 %
insertion: proc 2 at 90 %
insertion: proc 2 at 100 %
INFO: Particle insertion ins: inserted 76 particle templates (mass 9.948377e-05) at step 56001
 - a total of 4357 particle templates (mass 5.703300e-03) inserted so far.
   57000     4357   0.0026820352  0.00035127316         0.0051 
insertion: proc 2 at 0 %
insertion: proc 2 at 10 %
insertion: proc 2 at 20 %
insertion: proc 2 at 30 %
insertion: proc 2 at 40 %
insertion: proc 2 at 50 %
insertion: proc 2 at 60 %
insertion: proc 2 at 70 %
insertion: proc 2 at 80 %
insertion: proc 2 at 90 %
insertion: proc 2 at 100 %
INFO: Particle insertion ins: inserted 76 particle templates (mass 9.948377e-05) at step 57001
 - a total of 4433 particle templates (mass 5.802783e-03) inserted so far.
   58000     4433   0.0026374161  0.00033938774         0.0051 
insertion: proc 2 at 0 %
insertion: proc 2 at 10 %
insertion: proc 2 at 20 %
insertion: proc 2 at 30 %
insertion: proc 2 at 40 %
insertion: proc 2 at 50 %
insertion: proc 2 at 60 %
insertion: proc 2 at 70 %
insertion: proc 2 at 80 %
insertion: proc 2 at 90 %
insertion: proc 2 at 100 %
INFO: Particle insertion ins: inserted 77 particle templates (mass 1.007928e-04) at step 58001
 - a total of 4510 particle templates (mass 5.903576e-03) inserted so far.
   59000     4510   0.0026051534  0.00032079301         0.0051 
insertion: proc 2 at 0 %
insertion: proc 2 at 10 %
insertion: proc 2 at 20 %
insertion: proc 2 at 30 %
insertion: proc 2 at 40 %
insertion: proc 2 at 50 %
insertion: proc 2 at 60 %
insertion: proc 2 at 70 %
insertion: proc 2 at 80 %
insertion: proc 2 at 90 %
INFO: Particle insertion ins: inserted 77 particle templates (mass 1.007928e-04) at step 59001
 - a total of 4587 particle templates (mass 6.004369e-03) inserted so far.
insertion: proc 2 at 100 %
   60000     4587   0.0025880494  0.00030224237         0.0051 
insertion: proc 2 at 0 %
insertion: proc 2 at 10 %
insertion: proc 2 at 20 %
insertion: proc 2 at 30 %
insertion: proc 2 at 40 %
insertion: proc 2 at 50 %
insertion: proc 2 at 60 %
insertion: proc 2 at 70 %
insertion: proc 2 at 80 %
insertion: proc 2 at 90 %
insertion: proc 2 at 100 %
INFO: Particle insertion ins: inserted 77 particle templates (mass 1.007928e-04) at step 60001
 - a total of 4664 particle templates (mass 6.105162e-03) inserted so far.
   61000     4664    0.002533504  0.00028886317         0.0051 
insertion: proc 2 at 0 %
insertion: proc 2 at 10 %
insertion: proc 2 at 20 %
insertion: proc 2 at 30 %
insertion: proc 2 at 40 %
insertion: proc 2 at 50 %
insertion: proc 2 at 60 %
insertion: proc 2 at 70 %
insertion: proc 2 at 80 %
insertion: proc 2 at 90 %
insertion: proc 2 at 100 %
INFO: Particle insertion ins: inserted 76 particle templates (mass 9.948377e-05) at step 61001
 - a total of 4740 particle templates (mass 6.204645e-03) inserted so far.
   62000     4740   0.0024667578  0.00027768459         0.0051 
insertion: proc 2 at 0 %
insertion: proc 2 at 10 %
insertion: proc 2 at 20 %
insertion: proc 2 at 30 %
insertion: proc 2 at 40 %
insertion: proc 2 at 50 %
insertion: proc 2 at 60 %
insertion: proc 2 at 70 %
insertion: proc 2 at 80 %
insertion: proc 2 at 90 %
insertion: proc 2 at 100 %
INFO: Particle insertion ins: inserted 76 particle templates (mass 9.948377e-05) at step 62001
 - a total of 4816 particle templates (mass 6.304129e-03) inserted so far.
   63000     4816   0.0024244789  0.00025713156         0.0051 
insertion: proc 2 at 0 %
insertion: proc 2 at 10 %
insertion: proc 2 at 20 %
insertion: proc 2 at 30 %
insertion: proc 2 at 40 %
insertion: proc 2 at 50 %
insertion: proc 2 at 60 %
insertion: proc 2 at 70 %
insertion: proc 2 at 80 %
insertion: proc 2 at 90 %
insertion: proc 2 at 100 %
INFO: Particle insertion ins: inserted 77 particle templates (mass 1.007928e-04) at step 63001
 - a total of 4893 particle templates (mass 6.404922e-03) inserted so far.
   64000     4893    0.002398212  0.00024052744         0.0051 
insertion: proc 2 at 0 %
insertion: proc 2 at 10 %
insertion: proc 2 at 20 %
insertion: proc 2 at 30 %
insertion: proc 2 at 40 %
insertion: proc 2 at 50 %
insertion: proc 2 at 60 %
insertion: proc 2 at 70 %
insertion: proc 2 at 80 %
insertion: proc 2 at 90 %
insertion: proc 2 at 100 %
INFO: Particle insertion ins: inserted 76 particle templates (mass 9.948377e-05) at step 64001
 - a total of 4969 particle templates (mass 6.504406e-03) inserted so far.
   65000     4969   0.0023731439  0.00023320307         0.0051 
insertion: proc 2 at 0 %
insertion: proc 2 at 10 %
insertion: proc 2 at 20 %
insertion: proc 2 at 30 %
insertion: proc 2 at 40 %
insertion: proc 2 at 50 %
insertion: proc 2 at 60 %
insertion: proc 2 at 70 %
insertion: proc 2 at 80 %
insertion: proc 2 at 90 %
insertion: proc 2 at 100 %
INFO: Particle insertion ins: inserted 77 particle templates (mass 1.007928e-04) at step 65001
 - a total of 5046 particle templates (mass 6.605199e-03) inserted so far.
   66000     5046   0.0023537538  0.00021997676         0.0051 
insertion: proc 2 at 0 %
insertion: proc 2 at 10 %
insertion: proc 2 at 20 %
insertion: proc 2 at 30 %
insertion: proc 2 at 40 %
insertion: proc 2 at 50 %
insertion: proc 2 at 60 %
insertion: proc 2 at 70 %
insertion: proc 2 at 80 %
insertion: proc 2 at 90 %
insertion: proc 2 at 100 %
INFO: Particle insertion ins: inserted 77 particle templates (mass 1.007928e-04) at step 66001
 - a total of 5123 particle templates (mass 6.705991e-03) inserted so far.
   67000     5123   0.0023421036    0.000214196         0.0051 
insertion: proc 2 at 0 %
insertion: proc 2 at 10 %
insertion: proc 2 at 20 %
insertion: proc 2 at 30 %
insertion: proc 2 at 40 %
insertion: proc 2 at 50 %
insertion: proc 2 at 60 %
insertion: proc 2 at 70 %
insertion: proc 2 at 80 %
insertion: proc 2 at 90 %
insertion: proc 2 at 100 %
INFO: Particle insertion ins: inserted 76 particle templates (mass 9.948377e-05) at step 67001
 - a total of 5199 particle templates (mass 6.805475e-03) inserted so far.
   68000     5199   0.0023127636  0.00020385024         0.0051 
insertion: proc 2 at 0 %
insertion: proc 2 at 10 %
insertion: proc 2 at 20 %
insertion: proc 2 at 30 %
insertion: proc 2 at 40 %
insertion: proc 2 at 50 %
insertion: proc 2 at 60 %
insertion: proc 2 at 70 %
insertion: proc 2 at 80 %
insertion: proc 2 at 90 %
insertion: proc 2 at 100 %
INFO: Particle insertion ins: inserted 76 particle templates (mass 9.948377e-05) at step 68001
 - a total of 5275 particle templates (mass 6.904959e-03) inserted so far.
   69000     5275   0.0023022357  0.00019473735         0.0051 
insertion: proc 2 at 0 %
insertion: proc 2 at 10 %
insertion: proc 2 at 20 %
insertion: proc 2 at 30 %
insertion: proc 2 at 40 %
insertion: proc 2 at 50 %
insertion: proc 2 at 60 %
insertion: proc 2 at 70 %
insertion: proc 2 at 80 %
insertion: proc 2 at 90 %
insertion: proc 2 at 100 %
INFO: Particle insertion ins: inserted 76 particle templates (mass 9.948377e-05) at step 69001
 - a total of 5351 particle templates (mass 7.004443e-03) inserted so far.
   70000     5351   0.0022830974   0.0001832982         0.0051 
insertion: proc 2 at 0 %
insertion: proc 2 at 10 %
insertion: proc 2 at 20 %
insertion: proc 2 at 30 %
insertion: proc 2 at 40 %
insertion: proc 2 at 50 %
insertion: proc 2 at 60 %
insertion: proc 2 at 70 %
insertion: proc 2 at 80 %
insertion: proc 2 at 90 %
insertion: proc 2 at 100 %
INFO: Particle insertion ins: inserted 77 particle templates (mass 1.007928e-04) at step 70001
 - a total of 5428 particle templates (mass 7.105235e-03) inserted so far.
   71000     5428   0.0022634315  0.00017516805         0.0051 
insertion: proc 2 at 0 %
insertion: proc 2 at 10 %
insertion: proc 2 at 20 %
insertion: proc 2 at 30 %
insertion: proc 2 at 40 %
insertion: proc 2 at 50 %
insertion: proc 2 at 60 %
insertion: proc 2 at 70 %
insertion: proc 2 at 80 %
insertion: proc 2 at 90 %
insertion: proc 2 at 100 %
INFO: Particle insertion ins: inserted 77 particle templates (mass 1.007928e-04) at step 71001
 - a total of 5505 particle templates (mass 7.206028e-03) inserted so far.
   72000     5505     0.00224126   0.0001668295         0.0051 
insertion: proc 2 at 0 %
insertion: proc 2 at 10 %
insertion: proc 2 at 20 %
insertion: proc 2 at 30 %
insertion: proc 2 at 40 %
insertion: proc 2 at 50 %
insertion: proc 2 at 60 %
insertion: proc 2 at 70 %
insertion: proc 2 at 80 %
insertion: proc 2 at 90 %
insertion: proc 2 at 100 %
INFO: Particle insertion ins: inserted 76 particle templates (mass 9.948377e-05) at step 72001
 - a total of 5581 particle templates (mass 7.305512e-03) inserted so far.
   73000     5581   0.0022160804  0.00015895127         0.0051 
insertion: proc 2 at 0 %
insertion: proc 2 at 10 %
insertion: proc 2 at 20 %
insertion: proc 2 at 30 %
insertion: proc 2 at 40 %
insertion: proc 2 at 50 %
insertion: proc 2 at 60 %
insertion: proc 2 at 70 %
insertion: proc 2 at 80 %
insertion: proc 2 at 90 %
insertion: proc 2 at 100 %
INFO: Particle insertion ins: inserted 77 particle templates (mass 1.007928e-04) at step 73001
 - a total of 5658 particle templates (mass 7.406305e-03) inserted so far.
   74000     5658   0.0021993994  0.00015309012         0.0051 
insertion: proc 2 at 0 %
insertion: proc 2 at 10 %
insertion: proc 2 at 20 %
insertion: proc 2 at 30 %
insertion: proc 2 at 40 %
insertion: proc 2 at 50 %
insertion: proc 2 at 60 %
insertion: proc 2 at 70 %
insertion: proc 2 at 80 %
insertion: proc 2 at 90 %
insertion: proc 2 at 100 %
INFO: Particle insertion ins: inserted 77 particle templates (mass 1.007928e-04) at step 74001
 - a total of 5735 particle templates (mass 7.507097e-03) inserted so far.
   75000     5735   0.0021838519  0.00015014671         0.0051 
insertion: proc 2 at 0 %
insertion: proc 2 at 10 %
insertion: proc 2 at 20 %
insertion: proc 2 at 30 %
insertion: proc 2 at 40 %
insertion: proc 2 at 50 %
insertion: proc 2 at 60 %
insertion: proc 2 at 70 %
insertion: proc 2 at 80 %
insertion: proc 2 at 90 %
insertion: proc 2 at 100 %
INFO: Particle insertion ins: inserted 76 particle templates (mass 9.948377e-05) at step 75001
 - a total of 5811 particle templates (mass 7.606581e-03) inserted so far.
   76000     5811   0.0021690183   0.0001437903         0.0051 
insertion: proc 2 at 0 %
insertion: proc 2 at 10 %
insertion: proc 2 at 20 %
insertion: proc 2 at 30 %
insertion: proc 2 at 40 %
insertion: proc 2 at 50 %
insertion: proc 2 at 60 %
insertion: proc 2 at 70 %
insertion: proc 2 at 80 %
insertion: proc 2 at 90 %
insertion: proc 2 at 100 %
INFO: Particle insertion ins: inserted 77 particle templates (mass 1.007928e-04) at step 76001
 - a total of 5888 particle templates (mass 7.707374e-03) inserted so far.
   77000     5888   0.0021604222  0.00013479569         0.0051 
insertion: proc 2 at 0 %
insertion: proc 2 at 10 %
insertion: proc 2 at 20 %
insertion: proc 2 at 30 %
insertion: proc 2 at 40 %
insertion: proc 2 at 50 %
insertion: proc 2 at 60 %
insertion: proc 2 at 70 %
insertion: proc 2 at 80 %
insertion: proc 2 at 90 %
insertion: proc 2 at 100 %
INFO: Particle insertion ins: inserted 77 particle templates (mass 1.007928e-04) at step 77001
 - a total of 5965 particle templates (mass 7.808167e-03) inserted so far.
   78000     5965   0.0021596402   0.0001368217         0.0051 
insertion: proc 2 at 0 %
insertion: proc 2 at 10 %
insertion: proc 2 at 20 %
insertion: proc 2 at 30 %
insertion: proc 2 at 40 %
insertion: proc 2 at 50 %
insertion: proc 2 at 60 %
insertion: proc 2 at 70 %
insertion: proc 2 at 80 %
insertion: proc 2 at 90 %
insertion: proc 2 at 100 %
INFO: Particle insertion ins: inserted 77 particle templates (mass 1.007928e-04) at step 78001
 - a total of 6042 particle templates (mass 7.908960e-03) inserted so far.
   79000     6042   0.0021466829   0.0001319074         0.0051 
insertion: proc 2 at 0 %
insertion: proc 2 at 10 %
insertion: proc 2 at 20 %
insertion: proc 2 at 30 %
insertion: proc 2 at 40 %
insertion: proc 2 at 50 %
insertion: proc 2 at 60 %
insertion: proc 2 at 70 %
insertion: proc 2 at 80 %
insertion: proc 2 at 90 %
insertion: proc 2 at 100 %
INFO: Particle insertion ins: inserted 76 particle templates (mass 9.948377e-05) at step 79001
 - a total of 6118 particle templates (mass 8.008443e-03) inserted so far.
   80000     6118   0.0021426409  0.00012828166         0.0051 
insertion: proc 2 at 0 %
insertion: proc 2 at 10 %
insertion: proc 2 at 20 %
insertion: proc 2 at 30 %
insertion: proc 2 at 40 %
insertion: proc 2 at 50 %
insertion: proc 2 at 60 %
insertion: proc 2 at 70 %
insertion: proc 2 at 80 %
insertion: proc 2 at 90 %
insertion: proc 2 at 100 %
INFO: Particle insertion ins: inserted 77 particle templates (mass 1.007928e-04) at step 80001
 - a total of 6195 particle templates (mass 8.109236e-03) inserted so far.
   81000     6195   0.0021292836  0.00012773139         0.0051 
insertion: proc 2 at 0 %
insertion: proc 2 at 10 %
insertion: proc 2 at 20 %
insertion: proc 2 at 30 %
insertion: proc 2 at 40 %
insertion: proc 2 at 50 %
insertion: proc 2 at 60 %
insertion: proc 2 at 70 %
insertion: proc 2 at 80 %
insertion: proc 2 at 90 %
insertion: proc 2 at 100 %
INFO: Particle insertion ins: inserted 77 particle templates (mass 1.007928e-04) at step 81001
 - a total of 6272 particle templates (mass 8.210029e-03) inserted so far.
   82000     6272   0.0021197924  0.00012460789         0.0051 
insertion: proc 2 at 0 %
insertion: proc 2 at 10 %
insertion: proc 2 at 20 %
insertion: proc 2 at 30 %
insertion: proc 2 at 40 %
insertion: proc 2 at 50 %
insertion: proc 2 at 60 %
insertion: proc 2 at 70 %
insertion: proc 2 at 80 %
insertion: proc 2 at 90 %
insertion: proc 2 at 100 %
INFO: Particle insertion ins: inserted 76 particle templates (mass 9.948377e-05) at step 82001
 - a total of 6348 particle templates (mass 8.309513e-03) inserted so far.
   83000     6348   0.0021023478  0.00012386713         0.0051 
insertion: proc 2 at 0 %
insertion: proc 2 at 10 %
insertion: proc 2 at 20 %
insertion: proc 2 at 30 %
insertion: proc 2 at 40 %
insertion: proc 2 at 50 %
insertion: proc 2 at 60 %
insertion: proc 2 at 70 %
insertion: proc 2 at 80 %
insertion: proc 2 at 90 %
insertion: proc 2 at 100 %
INFO: Particle insertion ins: inserted 77 particle templates (mass 1.007928e-04) at step 83001
 - a total of 6425 particle templates (mass 8.410305e-03) inserted so far.
   84000     6425   0.0021017912  0.00012155538         0.0051 
insertion: proc 2 at 0 %
insertion: proc 2 at 10 %
insertion: proc 2 at 20 %
insertion: proc 2 at 30 %
insertion: proc 2 at 40 %
insertion: proc 2 at 50 %
insertion: proc 2 at 60 %
insertion: proc 2 at 70 %
insertion: proc 2 at 80 %
insertion: proc 2 at 90 %
insertion: proc 2 at 100 %
INFO: Particle insertion ins: inserted 77 particle templates (mass 1.007928e-04) at step 84001
 - a total of 6502 particle templates (mass 8.511098e-03) inserted so far.
   85000     6502   0.0021153442  0.00011695526         0.0051 
insertion: proc 2 at 0 %
insertion: proc 2 at 10 %
insertion: proc 2 at 20 %
insertion: proc 2 at 30 %
insertion: proc 2 at 40 %
insertion: proc 2 at 50 %
insertion: proc 2 at 60 %
insertion: proc 2 at 70 %
insertion: proc 2 at 80 %
insertion: proc 2 at 90 %
insertion: proc 2 at 100 %
INFO: Particle insertion ins: inserted 77 particle templates (mass 1.007928e-04) at step 85001
 - a total of 6579 particle templates (mass 8.611891e-03) inserted so far.
   86000     6579   0.0021048167  0.00011569266         0.0051 
insertion: proc 2 at 0 %
insertion: proc 2 at 10 %
insertion: proc 2 at 20 %
insertion: proc 2 at 30 %
insertion: proc 2 at 40 %
insertion: proc 2 at 50 %
insertion: proc 2 at 60 %
insertion: proc 2 at 70 %
insertion: proc 2 at 80 %
insertion: proc 2 at 90 %
insertion: proc 2 at 100 %
INFO: Particle insertion ins: inserted 76 particle templates (mass 9.948377e-05) at step 86001
 - a total of 6655 particle templates (mass 8.711375e-03) inserted so far.
   87000     6655    0.002100686  0.00011332211         0.0051 
insertion: proc 2 at 0 %
insertion: proc 2 at 10 %
insertion: proc 2 at 20 %
insertion: proc 2 at 30 %
insertion: proc 2 at 40 %
insertion: proc 2 at 50 %
insertion: proc 2 at 60 %
insertion: proc 2 at 70 %
insertion: proc 2 at 80 %
insertion: proc 2 at 90 %
insertion: proc 2 at 100 %
INFO: Particle insertion ins: inserted 77 particle templates (mass 1.007928e-04) at step 87001
 - a total of 6732 particle templates (mass 8.812167e-03) inserted so far.
   88000     6732   0.0020926509  0.00011432917         0.0051 
insertion: proc 2 at 0 %
insertion: proc 2 at 10 %
insertion: proc 2 at 20 %
insertion: proc 2 at 30 %
insertion: proc 2 at 40 %
insertion: proc 2 at 50 %
insertion: proc 2 at 60 %
insertion: proc 2 at 70 %
insertion: proc 2 at 80 %
insertion: proc 2 at 90 %
insertion: proc 2 at 100 %
INFO: Particle insertion ins: inserted 77 particle templates (mass 1.007928e-04) at step 88001
 - a total of 6809 particle templates (mass 8.912960e-03) inserted so far.
   89000     6809   0.0020894857   0.0001088256         0.0051 
insertion: proc 2 at 0 %
insertion: proc 2 at 10 %
insertion: proc 2 at 20 %
insertion: proc 2 at 30 %
insertion: proc 2 at 40 %
insertion: proc 2 at 50 %
insertion: proc 2 at 60 %
insertion: proc 2 at 70 %
insertion: proc 2 at 80 %
insertion: proc 2 at 90 %
insertion: proc 2 at 100 %
INFO: Particle insertion ins: inserted 76 particle templates (mass 9.948377e-05) at step 89001
 - a total of 6885 particle templates (mass 9.012444e-03) inserted so far.
   90000     6885   0.0020769692  0.00010706033         0.0051 
insertion: proc 2 at 0 %
insertion: proc 2 at 10 %
insertion: proc 2 at 20 %
insertion: proc 2 at 30 %
insertion: proc 2 at 40 %
insertion: proc 2 at 50 %
insertion: proc 2 at 60 %
insertion: proc 2 at 70 %
insertion: proc 2 at 80 %
insertion: proc 2 at 90 %
insertion: proc 2 at 100 %
INFO: Particle insertion ins: inserted 77 particle templates (mass 1.007928e-04) at step 90001
 - a total of 6962 particle templates (mass 9.113237e-03) inserted so far.
   91000     6962   0.0020852167  0.00010392955         0.0051 
insertion: proc 2 at 0 %
insertion: proc 2 at 10 %
insertion: proc 2 at 20 %
insertion: proc 2 at 30 %
insertion: proc 2 at 40 %
insertion: proc 2 at 50 %
insertion: proc 2 at 60 %
insertion: proc 2 at 70 %
insertion: proc 2 at 80 %
insertion: proc 2 at 90 %
insertion: proc 2 at 100 %
INFO: Particle insertion ins: inserted 76 particle templates (mass 9.948377e-05) at step 91001
 - a total of 7038 particle templates (mass 9.212720e-03) inserted so far.
   92000     7038   0.0020675988  0.00010524746         0.0051 
insertion: proc 2 at 0 %
insertion: proc 2 at 10 %
insertion: proc 2 at 20 %
insertion: proc 2 at 30 %
insertion: proc 2 at 40 %
insertion: proc 2 at 50 %
insertion: proc 2 at 60 %
insertion: proc 2 at 70 %
insertion: proc 2 at 80 %
insertion: proc 2 at 90 %
insertion: proc 2 at 100 %
INFO: Particle insertion ins: inserted 77 particle templates (mass 1.007928e-04) at step 92001
 - a total of 7115 particle templates (mass 9.313513e-03) inserted so far.
   93000     7115   0.0020759946  0.00010161341         0.0051 
insertion: proc 2 at 0 %
insertion: proc 2 at 10 %
insertion: proc 2 at 20 %
insertion: proc 2 at 30 %
insertion: proc 2 at 40 %
insertion: proc 2 at 50 %
insertion: proc 2 at 60 %
insertion: proc 2 at 70 %
insertion: proc 2 at 80 %
insertion: proc 2 at 90 %
insertion: proc 2 at 100 %
INFO: Particle insertion ins: inserted 77 particle templates (mass 1.007928e-04) at step 93001
 - a total of 7192 particle templates (mass 9.414306e-03) inserted so far.
   94000     7192   0.0020781986  0.00010362956         0.0051 
insertion: proc 2 at 0 %
insertion: proc 2 at 10 %
insertion: proc 2 at 20 %
insertion: proc 2 at 30 %
insertion: proc 2 at 40 %
insertion: proc 2 at 50 %
insertion: proc 2 at 60 %
insertion: proc 2 at 70 %
insertion: proc 2 at 80 %
insertion: proc 2 at 90 %
insertion: proc 2 at 100 %
INFO: Particle insertion ins: inserted 76 particle templates (mass 9.948377e-05) at step 94001
 - a total of 7268 particle templates (mass 9.513790e-03) inserted so far.
   95000     7268   0.0020676403  0.00010519722         0.0051 
insertion: proc 2 at 0 %
insertion: proc 2 at 10 %
insertion: proc 2 at 20 %
insertion: proc 2 at 30 %
insertion: proc 2 at 40 %
insertion: proc 2 at 50 %
insertion: proc 2 at 60 %
insertion: proc 2 at 70 %
insertion: proc 2 at 80 %
insertion: proc 2 at 90 %
insertion: proc 2 at 100 %
INFO: Particle insertion ins: inserted 77 particle templates (mass 1.007928e-04) at step 95001
 - a total of 7345 particle templates (mass 9.614583e-03) inserted so far.
   96000     7345   0.0020565069  0.00010103195         0.0051 
insertion: proc 2 at 0 %
insertion: proc 2 at 10 %
insertion: proc 2 at 20 %
insertion: proc 2 at 30 %
insertion: proc 2 at 40 %
insertion: proc 2 at 50 %
insertion: proc 2 at 60 %
insertion: proc 2 at 70 %
insertion: proc 2 at 80 %
insertion: proc 2 at 90 %
insertion: proc 2 at 100 %
INFO: Particle insertion ins: inserted 76 particle templates (mass 9.948377e-05) at step 96001
 - a total of 7421 particle templates (mass 9.714066e-03) inserted so far.
   97000     7421   0.0020522769  9.7591725e-05         0.0051 
insertion: proc 2 at 0 %
insertion: proc 2 at 10 %
insertion: proc 2 at 20 %
insertion: proc 2 at 30 %
insertion: proc 2 at 40 %
insertion: proc 2 at 50 %
insertion: proc 2 at 60 %
insertion: proc 2 at 70 %
insertion: proc 2 at 80 %
insertion: proc 2 at 90 %
insertion: proc 2 at 100 %
INFO: Particle insertion ins: inserted 77 particle templates (mass 1.007928e-04) at step 97001
 - a total of 7498 particle templates (mass 9.814859e-03) inserted so far.
   98000     7498    0.002044495    9.83424e-05         0.0051 
insertion: proc 2 at 0 %
insertion: proc 2 at 10 %
insertion: proc 2 at 20 %
insertion: proc 2 at 30 %
insertion: proc 2 at 40 %
insertion: proc 2 at 50 %
insertion: proc 2 at 60 %
insertion: proc 2 at 70 %
insertion: proc 2 at 80 %
insertion: proc 2 at 90 %
insertion: proc 2 at 100 %
INFO: Particle insertion ins: inserted 76 particle templates (mass 9.948377e-05) at step 98001
 - a total of 7574 particle templates (mass 9.914343e-03) inserted so far.
   99000     7574   0.0020572696  9.3173133e-05         0.0051 
insertion: proc 2 at 0 %
insertion: proc 2 at 10 %
insertion: proc 2 at 20 %
insertion: proc 2 at 30 %
insertion: proc 2 at 40 %
insertion: proc 2 at 50 %
insertion: proc 2 at 60 %
insertion: proc 2 at 70 %
insertion: proc 2 at 80 %
insertion: proc 2 at 90 %
insertion: proc 2 at 100 %
INFO: Particle insertion ins: inserted 76 particle templates (mass 9.948377e-05) at step 99001
 - a total of 7650 particle templates (mass 1.001383e-02) inserted so far.
  100000     7650   0.0020548668  9.5727056e-05         0.0051 
insertion: proc 2 at 0 %
insertion: proc 2 at 10 %
insertion: proc 2 at 20 %
insertion: proc 2 at 30 %
insertion: proc 2 at 40 %
insertion: proc 2 at 50 %
insertion: proc 2 at 60 %
insertion: proc 2 at 70 %
insertion: proc 2 at 80 %
insertion: proc 2 at 90 %
insertion: proc 2 at 100 %
INFO: Particle insertion ins: inserted 76 particle templates (mass 9.948377e-05) at step 100001
 - a total of 7726 particle templates (mass 1.011331e-02) inserted so far.
  101000     7726   0.0020487828  9.4423866e-05         0.0051 
insertion: proc 2 at 0 %
insertion: proc 2 at 10 %
insertion: proc 2 at 20 %
insertion: proc 2 at 30 %
insertion: proc 2 at 40 %
insertion: proc 2 at 50 %
insertion: proc 2 at 60 %
insertion: proc 2 at 70 %
insertion: proc 2 at 80 %
insertion: proc 2 at 90 %
insertion: proc 2 at 100 %
INFO: Particle insertion ins: inserted 77 particle templates (mass 1.007928e-04) at step 101001
 - a total of 7803 particle templates (mass 1.021410e-02) inserted so far.
  102000     7803   0.0020450762  9.2690488e-05         0.0051 
insertion: proc 2 at 0 %
insertion: proc 2 at 10 %
insertion: proc 2 at 20 %
insertion: proc 2 at 30 %
insertion: proc 2 at 40 %
insertion: proc 2 at 50 %
insertion: proc 2 at 60 %
insertion: proc 2 at 70 %
insertion: proc 2 at 80 %
insertion: proc 2 at 90 %
insertion: proc 2 at 100 %
INFO: Particle insertion ins: inserted 77 particle templates (mass 1.007928e-04) at step 102001
 - a total of 7880 particle templates (mass 1.031490e-02) inserted so far.
  103000     7880   0.0020364367   9.296269e-05         0.0051 
insertion: proc 2 at 0 %
insertion: proc 2 at 10 %
insertion: proc 2 at 20 %
insertion: proc 2 at 30 %
insertion: proc 2 at 40 %
insertion: proc 2 at 50 %
insertion: proc 2 at 60 %
insertion: proc 2 at 70 %
insertion: proc 2 at 80 %
insertion: proc 2 at 90 %
insertion: proc 2 at 100 %
INFO: Particle insertion ins: inserted 77 particle templates (mass 1.007928e-04) at step 103001
 - a total of 7957 particle templates (mass 1.041569e-02) inserted so far.
  104000     7957   0.0020344378  9.2783456e-05         0.0051 
insertion: proc 2 at 0 %
insertion: proc 2 at 10 %
insertion: proc 2 at 20 %
insertion: proc 2 at 30 %
insertion: proc 2 at 40 %
insertion: proc 2 at 50 %
insertion: proc 2 at 60 %
insertion: proc 2 at 70 %
insertion: proc 2 at 80 %
insertion: proc 2 at 90 %
insertion: proc 2 at 100 %
INFO: Particle insertion ins: inserted 76 particle templates (mass 9.948377e-05) at step 104001
 - a total of 8033 particle templates (mass 1.051517e-02) inserted so far.
  105000     8033   0.0020387992  8.9937327e-05         0.0051 
insertion: proc 2 at 0 %
insertion: proc 2 at 10 %
insertion: proc 2 at 20 %
insertion: proc 2 at 30 %
insertion: proc 2 at 40 %
insertion: proc 2 at 50 %
insertion: proc 2 at 60 %
insertion: proc 2 at 70 %
insertion: proc 2 at 80 %
insertion: proc 2 at 90 %
insertion: proc 2 at 100 %
INFO: Particle insertion ins: inserted 77 particle templates (mass 1.007928e-04) at step 105001
 - a total of 8110 particle templates (mass 1.061597e-02) inserted so far.
  106000     8110   0.0020333482  8.7512207e-05         0.0051 
insertion: proc 2 at 0 %
insertion: proc 2 at 10 %
insertion: proc 2 at 20 %
insertion: proc 2 at 30 %
insertion: proc 2 at 40 %
insertion: proc 2 at 50 %
insertion: proc 2 at 60 %
insertion: proc 2 at 70 %
insertion: proc 2 at 80 %
insertion: proc 2 at 90 %
insertion: proc 2 at 100 %
INFO: Particle insertion ins: inserted 76 particle templates (mass 9.948377e-05) at step 106001
 - a total of 8186 particle templates (mass 1.071545e-02) inserted so far.
  107000     8186   0.0020238197  8.6630171e-05         0.0051 
insertion: proc 2 at 0 %
insertion: proc 2 at 10 %
insertion: proc 2 at 20 %
insertion: proc 2 at 30 %
insertion: proc 2 at 40 %
insertion: proc 2 at 50 %
insertion: proc 2 at 60 %
insertion: proc 2 at 70 %
insertion: proc 2 at 80 %
insertion: proc 2 at 90 %
insertion: proc 2 at 100 %
INFO: Particle insertion ins: inserted 76 particle templates (mass 9.948377e-05) at step 107001
 - a total of 8262 particle templates (mass 1.081493e-02) inserted so far.
  108000     8262   0.0020265827  8.6105651e-05         0.0051 
insertion: proc 2 at 0 %
insertion: proc 2 at 10 %
insertion: proc 2 at 20 %
insertion: proc 2 at 30 %
insertion: proc 2 at 40 %
insertion: proc 2 at 50 %
insertion: proc 2 at 60 %
insertion: proc 2 at 70 %
insertion: proc 2 at 80 %
insertion: proc 2 at 90 %
insertion: proc 2 at 100 %
INFO: Particle insertion ins: inserted 77 particle templates (mass 1.007928e-04) at step 108001
 - a total of 8339 particle templates (mass 1.091573e-02) inserted so far.
  109000     8339   0.0020329804  9.0254301e-05         0.0051 
insertion: proc 2 at 0 %
insertion: proc 2 at 10 %
insertion: proc 2 at 20 %
insertion: proc 2 at 30 %
insertion: proc 2 at 40 %
insertion: proc 2 at 50 %
insertion: proc 2 at 60 %
insertion: proc 2 at 70 %
insertion: proc 2 at 80 %
insertion: proc 2 at 90 %
insertion: proc 2 at 100 %
INFO: Particle insertion ins: inserted 76 particle templates (mass 9.948377e-05) at step 109001
 - a total of 8415 particle templates (mass 1.101521e-02) inserted so far.
  110000     8415   0.0020141532  8.8224338e-05         0.0051 
insertion: proc 2 at 0 %
insertion: proc 2 at 10 %
insertion: proc 2 at 20 %
insertion: proc 2 at 30 %
insertion: proc 2 at 40 %
insertion: proc 2 at 50 %
insertion: proc 2 at 60 %
insertion: proc 2 at 70 %
insertion: proc 2 at 80 %
insertion: proc 2 at 90 %
insertion: proc 2 at 100 %
INFO: Particle insertion ins: inserted 77 particle templates (mass 1.007928e-04) at step 110001
 - a total of 8492 particle templates (mass 1.111600e-02) inserted so far.
  111000     8492   0.0020180282  8.7492007e-05         0.0051 
insertion: proc 2 at 0 %
insertion: proc 2 at 10 %
insertion: proc 2 at 20 %
insertion: proc 2 at 30 %
insertion: proc 2 at 40 %
insertion: proc 2 at 50 %
insertion: proc 2 at 60 %
insertion: proc 2 at 70 %
insertion: proc 2 at 80 %
insertion: proc 2 at 90 %
insertion: proc 2 at 100 %
INFO: Particle insertion ins: inserted 77 particle templates (mass 1.007928e-04) at step 111001
 - a total of 8569 particle templates (mass 1.121679e-02) inserted so far.
  112000     8569   0.0020334131  8.9080878e-05         0.0051 
insertion: proc 2 at 0 %
insertion: proc 2 at 10 %
insertion: proc 2 at 20 %
insertion: proc 2 at 30 %
insertion: proc 2 at 40 %
insertion: proc 2 at 50 %
insertion: proc 2 at 60 %
insertion: proc 2 at 70 %
insertion: proc 2 at 80 %
insertion: proc 2 at 90 %
insertion: proc 2 at 100 %
INFO: Particle insertion ins: inserted 76 particle templates (mass 9.948377e-05) at step 112001
 - a total of 8645 particle templates (mass 1.131628e-02) inserted so far.
  113000     8645   0.0020257535  8.8918918e-05         0.0051 
insertion: proc 2 at 0 %
insertion: proc 2 at 10 %
insertion: proc 2 at 20 %
insertion: proc 2 at 30 %
insertion: proc 2 at 40 %
insertion: proc 2 at 50 %
insertion: proc 2 at 60 %
insertion: proc 2 at 70 %
insertion: proc 2 at 80 %
insertion: proc 2 at 90 %
insertion: proc 2 at 100 %
INFO: Particle insertion ins: inserted 77 particle templates (mass 1.007928e-04) at step 113001
 - a total of 8722 particle templates (mass 1.141707e-02) inserted so far.
  114000     8722   0.0020206485  8.8248884e-05         0.0051 
insertion: proc 2 at 0 %
insertion: proc 2 at 10 %
insertion: proc 2 at 20 %
insertion: proc 2 at 30 %
insertion: proc 2 at 40 %
insertion: proc 2 at 50 %
insertion: proc 2 at 60 %
insertion: proc 2 at 70 %
insertion: proc 2 at 80 %
insertion: proc 2 at 90 %
insertion: proc 2 at 100 %
INFO: Particle insertion ins: inserted 77 particle templates (mass 1.007928e-04) at step 114001
 - a total of 8799 particle templates (mass 1.151786e-02) inserted so far.
  115000     8799   0.0020216393  8.5021077e-05         0.0051 
insertion: proc 2 at 0 %
insertion: proc 2 at 10 %
insertion: proc 2 at 20 %
insertion: proc 2 at 30 %
insertion: proc 2 at 40 %
insertion: proc 2 at 50 %
insertion: proc 2 at 60 %
insertion: proc 2 at 70 %
insertion: proc 2 at 80 %
insertion: proc 2 at 90 %
insertion: proc 2 at 100 %
INFO: Particle insertion ins: inserted 76 particle templates (mass 9.948377e-05) at step 115001
 - a total of 8875 particle templates (mass 1.161735e-02) inserted so far.
  116000     8875   0.0020281483  8.3790592e-05         0.0051 
insertion: proc 2 at 0 %
insertion: proc 2 at 10 %
insertion: proc 2 at 20 %
insertion: proc 2 at 30 %
insertion: proc 2 at 40 %
insertion: proc 2 at 50 %
insertion: proc 2 at 60 %
insertion: proc 2 at 70 %
insertion: proc 2 at 80 %
insertion: proc 2 at 90 %
insertion: proc 2 at 100 %
INFO: Particle insertion ins: inserted 76 particle templates (mass 9.948377e-05) at step 116001
 - a total of 8951 particle templates (mass 1.171683e-02) inserted so far.
  117000     8951   0.0020085119  8.4859971e-05         0.0051 
insertion: proc 2 at 0 %
insertion: proc 2 at 10 %
insertion: proc 2 at 20 %
insertion: proc 2 at 30 %
insertion: proc 2 at 40 %
insertion: proc 2 at 50 %
insertion: proc 2 at 60 %
insertion: proc 2 at 70 %
insertion: proc 2 at 80 %
insertion: proc 2 at 90 %
insertion: proc 2 at 100 %
INFO: Particle insertion ins: inserted 76 particle templates (mass 9.948377e-05) at step 117001
 - a total of 9027 particle templates (mass 1.181632e-02) inserted so far.
  118000     9027   0.0019989838  8.4200077e-05         0.0051 
insertion: proc 2 at 0 %
insertion: proc 2 at 10 %
insertion: proc 2 at 20 %
insertion: proc 2 at 30 %
insertion: proc 2 at 40 %
insertion: proc 2 at 50 %
insertion: proc 2 at 60 %
insertion: proc 2 at 70 %
insertion: proc 2 at 80 %
insertion: proc 2 at 90 %
insertion: proc 2 at 100 %
INFO: Particle insertion ins: inserted 76 particle templates (mass 9.948377e-05) at step 118001
 - a total of 9103 particle templates (mass 1.191580e-02) inserted so far.
  119000     9103   0.0020070567  8.3875405e-05         0.0051 
insertion: proc 2 at 0 %
insertion: proc 2 at 10 %
insertion: proc 2 at 20 %
insertion: proc 2 at 30 %
insertion: proc 2 at 40 %
insertion: proc 2 at 50 %
insertion: proc 2 at 60 %
insertion: proc 2 at 70 %
insertion: proc 2 at 80 %
insertion: proc 2 at 90 %
insertion: proc 2 at 100 %
INFO: Particle insertion ins: inserted 76 particle templates (mass 9.948377e-05) at step 119001
 - a total of 9179 particle templates (mass 1.201528e-02) inserted so far.
  120000     9179   0.0020129325  8.2539358e-05         0.0051 
insertion: proc 2 at 0 %
insertion: proc 2 at 10 %
insertion: proc 2 at 20 %
insertion: proc 2 at 30 %
insertion: proc 2 at 40 %
insertion: proc 2 at 50 %
insertion: proc 2 at 60 %
insertion: proc 2 at 70 %
insertion: proc 2 at 80 %
insertion: proc 2 at 90 %
insertion: proc 2 at 100 %
INFO: Particle insertion ins: inserted 76 particle templates (mass 9.948377e-05) at step 120001
 - a total of 9255 particle templates (mass 1.211477e-02) inserted so far.
  121000     9255   0.0020078428  7.9998308e-05         0.0051 
insertion: proc 2 at 0 %
insertion: proc 2 at 10 %
insertion: proc 2 at 20 %
insertion: proc 2 at 30 %
insertion: proc 2 at 40 %
insertion: proc 2 at 50 %
insertion: proc 2 at 60 %
insertion: proc 2 at 70 %
insertion: proc 2 at 80 %
insertion: proc 2 at 90 %
insertion: proc 2 at 100 %
INFO: Particle insertion ins: inserted 76 particle templates (mass 9.948377e-05) at step 121001
 - a total of 9331 particle templates (mass 1.221425e-02) inserted so far.
  122000     9331   0.0020021873  7.9222883e-05         0.0051 
insertion: proc 2 at 0 %
insertion: proc 2 at 10 %
insertion: proc 2 at 20 %
insertion: proc 2 at 30 %
insertion: proc 2 at 40 %
insertion: proc 2 at 50 %
insertion: proc 2 at 60 %
insertion: proc 2 at 70 %
insertion: proc 2 at 80 %
insertion: proc 2 at 90 %
insertion: proc 2 at 100 %
INFO: Particle insertion ins: inserted 76 particle templates (mass 9.948377e-05) at step 122001
 - a total of 9407 particle templates (mass 1.231373e-02) inserted so far.
  123000     9407   0.0019985559  7.7563953e-05         0.0051 
insertion: proc 2 at 0 %
insertion: proc 2 at 10 %
insertion: proc 2 at 20 %
insertion: proc 2 at 30 %
insertion: proc 2 at 40 %
insertion: proc 2 at 50 %
insertion: proc 2 at 60 %
insertion: proc 2 at 70 %
insertion: proc 2 at 80 %
insertion: proc 2 at 90 %
insertion: proc 2 at 100 %
INFO: Particle insertion ins: inserted 76 particle templates (mass 9.948377e-05) at step 123001
 - a total of 9483 particle templates (mass 1.241322e-02) inserted so far.
  124000     9483   0.0020062312  7.6788795e-05         0.0051 
insertion: proc 2 at 0 %
insertion: proc 2 at 10 %
insertion: proc 2 at 20 %
insertion: proc 2 at 30 %
insertion: proc 2 at 40 %
insertion: proc 2 at 50 %
insertion: proc 2 at 60 %
insertion: proc 2 at 70 %
insertion: proc 2 at 80 %
insertion: proc 2 at 90 %
insertion: proc 2 at 100 %
INFO: Particle insertion ins: inserted 76 particle templates (mass 9.948377e-05) at step 124001
 - a total of 9559 particle templates (mass 1.251270e-02) inserted so far.
  125000     9559   0.0019967813  7.9411103e-05         0.0051 
insertion: proc 2 at 0 %
insertion: proc 2 at 10 %
insertion: proc 2 at 20 %
insertion: proc 2 at 30 %
insertion: proc 2 at 40 %
insertion: proc 2 at 50 %
insertion: proc 2 at 60 %
insertion: proc 2 at 70 %
insertion: proc 2 at 80 %
insertion: proc 2 at 90 %
insertion: proc 2 at 100 %
INFO: Particle insertion ins: inserted 77 particle templates (mass 1.007928e-04) at step 125001
 - a total of 9636 particle templates (mass 1.261349e-02) inserted so far.
  126000     9636   0.0019890303  7.7862453e-05         0.0051 
insertion: proc 2 at 0 %
insertion: proc 2 at 10 %
insertion: proc 2 at 20 %
insertion: proc 2 at 30 %
insertion: proc 2 at 40 %
insertion: proc 2 at 50 %
insertion: proc 2 at 60 %
insertion: proc 2 at 70 %
insertion: proc 2 at 80 %
insertion: proc 2 at 90 %
insertion: proc 2 at 100 %
INFO: Particle insertion ins: inserted 77 particle templates (mass 1.007928e-04) at step 126001
 - a total of 9713 particle templates (mass 1.271429e-02) inserted so far.
  127000     9713   0.0019950793  8.0897522e-05         0.0051 
insertion: proc 2 at 0 %
insertion: proc 2 at 10 %
insertion: proc 2 at 20 %
insertion: proc 2 at 30 %
insertion: proc 2 at 40 %
insertion: proc 2 at 50 %
insertion: proc 2 at 60 %
insertion: proc 2 at 70 %
insertion: proc 2 at 80 %
insertion: proc 2 at 90 %
insertion: proc 2 at 100 %
INFO: Particle insertion ins: inserted 77 particle templates (mass 1.007928e-04) at step 127001
 - a total of 9790 particle templates (mass 1.281508e-02) inserted so far.
  128000     9790   0.0019971352  7.9220245e-05         0.0051 
insertion: proc 2 at 0 %
insertion: proc 2 at 10 %
insertion: proc 2 at 20 %
insertion: proc 2 at 30 %
insertion: proc 2 at 40 %
insertion: proc 2 at 50 %
insertion: proc 2 at 60 %
insertion: proc 2 at 70 %
insertion: proc 2 at 80 %
insertion: proc 2 at 90 %
insertion: proc 2 at 100 %
INFO: Particle insertion ins: inserted 76 particle templates (mass 9.948377e-05) at step 128001
 - a total of 9866 particle templates (mass 1.291456e-02) inserted so far.
  129000     9866   0.0020035469  8.2401067e-05         0.0051 
insertion: proc 2 at 0 %
insertion: proc 2 at 10 %
insertion: proc 2 at 20 %
insertion: proc 2 at 30 %
insertion: proc 2 at 40 %
insertion: proc 2 at 50 %
insertion: proc 2 at 60 %
insertion: proc 2 at 70 %
insertion: proc 2 at 80 %
insertion: proc 2 at 90 %
insertion: proc 2 at 100 %
INFO: Particle insertion ins: inserted 77 particle templates (mass 1.007928e-04) at step 129001
 - a total of 9943 particle templates (mass 1.301536e-02) inserted so far.
  130000     9943   0.0019967903    8.13139e-05         0.0051 
insertion: proc 2 at 0 %
insertion: proc 2 at 10 %
insertion: proc 2 at 20 %
insertion: proc 2 at 30 %
insertion: proc 2 at 40 %
insertion: proc 2 at 50 %
insertion: proc 2 at 60 %
insertion: proc 2 at 70 %
insertion: proc 2 at 80 %
insertion: proc 2 at 90 %
insertion: proc 2 at 100 %
INFO: Particle insertion ins: inserted 77 particle templates (mass 1.007928e-04) at step 130001
 - a total of 10020 particle templates (mass 1.311615e-02) inserted so far.
  131000    10020   0.0019879746  7.8444646e-05         0.0051 
insertion: proc 2 at 0 %
insertion: proc 2 at 10 %
insertion: proc 2 at 20 %
insertion: proc 2 at 30 %
insertion: proc 2 at 40 %
insertion: proc 2 at 50 %
insertion: proc 2 at 60 %
insertion: proc 2 at 70 %
insertion: proc 2 at 80 %
insertion: proc 2 at 90 %
insertion: proc 2 at 100 %
INFO: Particle insertion ins: inserted 76 particle templates (mass 9.948377e-05) at step 131001
 - a total of 10096 particle templates (mass 1.321563e-02) inserted so far.
  132000    10096   0.0019975494  7.3315686e-05         0.0051 
insertion: proc 2 at 0 %
insertion: proc 2 at 10 %
insertion: proc 2 at 20 %
insertion: proc 2 at 30 %
insertion: proc 2 at 40 %
insertion: proc 2 at 50 %
insertion: proc 2 at 60 %
insertion: proc 2 at 70 %
insertion: proc 2 at 80 %
insertion: proc 2 at 90 %
insertion: proc 2 at 100 %
INFO: Particle insertion ins: inserted 76 particle templates (mass 9.948377e-05) at step 132001
 - a total of 10172 particle templates (mass 1.331512e-02) inserted so far.
  133000    10172    0.001996929   7.390573e-05         0.0051 
insertion: proc 2 at 0 %
insertion: proc 2 at 10 %
insertion: proc 2 at 20 %
insertion: proc 2 at 30 %
insertion: proc 2 at 40 %
insertion: proc 2 at 50 %
insertion: proc 2 at 60 %
insertion: proc 2 at 70 %
insertion: proc 2 at 80 %
insertion: proc 2 at 90 %
insertion: proc 2 at 100 %
INFO: Particle insertion ins: inserted 77 particle templates (mass 1.007928e-04) at step 133001
 - a total of 10249 particle templates (mass 1.341591e-02) inserted so far.
  134000    10249   0.0019921527  7.2553239e-05         0.0051 
insertion: proc 2 at 0 %
insertion: proc 2 at 10 %
insertion: proc 2 at 20 %
insertion: proc 2 at 30 %
insertion: proc 2 at 40 %
insertion: proc 2 at 50 %
insertion: proc 2 at 60 %
insertion: proc 2 at 70 %
insertion: proc 2 at 80 %
insertion: proc 2 at 90 %
insertion: proc 2 at 100 %
INFO: Particle insertion ins: inserted 76 particle templates (mass 9.948377e-05) at step 134001
 - a total of 10325 particle templates (mass 1.351539e-02) inserted so far.
  135000    10325   0.0019880279  7.3119539e-05         0.0051 
insertion: proc 2 at 0 %
insertion: proc 2 at 10 %
insertion: proc 2 at 20 %
insertion: proc 2 at 30 %
insertion: proc 2 at 40 %
insertion: proc 2 at 50 %
insertion: proc 2 at 60 %
insertion: proc 2 at 70 %
insertion: proc 2 at 80 %
insertion: proc 2 at 90 %
insertion: proc 2 at 100 %
INFO: Particle insertion ins: inserted 76 particle templates (mass 9.948377e-05) at step 135001
 - a total of 10401 particle templates (mass 1.361488e-02) inserted so far.
  136000    10401   0.0019794462  7.5337616e-05         0.0051 
insertion: proc 2 at 0 %
insertion: proc 2 at 10 %
insertion: proc 2 at 20 %
insertion: proc 2 at 30 %
insertion: proc 2 at 40 %
insertion: proc 2 at 50 %
insertion: proc 2 at 60 %
insertion: proc 2 at 70 %
insertion: proc 2 at 80 %
insertion: proc 2 at 90 %
insertion: proc 2 at 100 %
INFO: Particle insertion ins: inserted 76 particle templates (mass 9.948377e-05) at step 136001
 - a total of 10477 particle templates (mass 1.371436e-02) inserted so far.
  137000    10477   0.0019796675  7.6357569e-05         0.0051 
insertion: proc 2 at 0 %
insertion: proc 2 at 10 %
insertion: proc 2 at 20 %
insertion: proc 2 at 30 %
insertion: proc 2 at 40 %
insertion: proc 2 at 50 %
insertion: proc 2 at 60 %
insertion: proc 2 at 70 %
insertion: proc 2 at 80 %
insertion: proc 2 at 90 %
insertion: proc 2 at 100 %
INFO: Particle insertion ins: inserted 76 particle templates (mass 9.948377e-05) at step 137001
 - a total of 10553 particle templates (mass 1.381384e-02) inserted so far.
  138000    10553   0.0019854617  7.6010982e-05         0.0051 
insertion: proc 2 at 0 %
insertion: proc 2 at 10 %
insertion: proc 2 at 20 %
insertion: proc 2 at 30 %
insertion: proc 2 at 40 %
insertion: proc 2 at 50 %
insertion: proc 2 at 60 %
insertion: proc 2 at 70 %
insertion: proc 2 at 80 %
insertion: proc 2 at 90 %
insertion: proc 2 at 100 %
INFO: Particle insertion ins: inserted 76 particle templates (mass 9.948377e-05) at step 138001
 - a total of 10629 particle templates (mass 1.391333e-02) inserted so far.
  139000    10629   0.0019779043  7.5880542e-05         0.0051 
insertion: proc 2 at 0 %
insertion: proc 2 at 10 %
insertion: proc 2 at 20 %
insertion: proc 2 at 30 %
insertion: proc 2 at 40 %
insertion: proc 2 at 50 %
insertion: proc 2 at 60 %
insertion: proc 2 at 70 %
insertion: proc 2 at 80 %
insertion: proc 2 at 90 %
insertion: proc 2 at 100 %
INFO: Particle insertion ins: inserted 76 particle templates (mass 9.948377e-05) at step 139001
 - a total of 10705 particle templates (mass 1.401281e-02) inserted so far.
  140000    10705    0.001977404   7.447268e-05         0.0051 
insertion: proc 2 at 0 %
insertion: proc 2 at 10 %
insertion: proc 2 at 20 %
insertion: proc 2 at 30 %
insertion: proc 2 at 40 %
insertion: proc 2 at 50 %
insertion: proc 2 at 60 %
insertion: proc 2 at 70 %
insertion: proc 2 at 80 %
insertion: proc 2 at 90 %
insertion: proc 2 at 100 %
INFO: Particle insertion ins: inserted 76 particle templates (mass 9.948377e-05) at step 140001
 - a total of 10781 particle templates (mass 1.411230e-02) inserted so far.
  141000    10781   0.0019862999  7.3998687e-05         0.0051 
insertion: proc 2 at 0 %
insertion: proc 2 at 10 %
insertion: proc 2 at 20 %
insertion: proc 2 at 30 %
insertion: proc 2 at 40 %
insertion: proc 2 at 50 %
insertion: proc 2 at 60 %
insertion: proc 2 at 70 %
insertion: proc 2 at 80 %
insertion: proc 2 at 90 %
insertion: proc 2 at 100 %
INFO: Particle insertion ins: inserted 77 particle templates (mass 1.007928e-04) at step 141001
 - a total of 10858 particle templates (mass 1.421309e-02) inserted so far.
  142000    10858    0.001988401  7.6384616e-05         0.0051 
insertion: proc 2 at 0 %
[...]
insertion: proc 2 at 80 %
insertion: proc 2 at 90 %
insertion: proc 2 at 100 %
INFO: Particle insertion ins: inserted 76 particle templates (mass 9.948377e-05) at step 181001
 - a total of 13915 particle templates (mass 1.821469e-02) inserted so far.
  182000    13915   0.0019590695  6.8689472e-05         0.0051 
insertion: proc 2 at 0 %
insertion: proc 2 at 10 %
insertion: proc 2 at 20 %
insertion: proc 2 at 30 %
insertion: proc 2 at 40 %
insertion: proc 2 at 50 %
insertion: proc 2 at 60 %
insertion: proc 2 at 70 %
insertion: proc 2 at 80 %
insertion: proc 2 at 90 %
insertion: proc 2 at 100 %
INFO: Particle insertion ins: inserted 77 particle templates (mass 1.007928e-04) at step 182001
 - a total of 13992 particle templates (mass 1.831549e-02) inserted so far.
  183000    13992    0.001957934  6.9238998e-05         0.0051 
insertion: proc 2 at 0 %
insertion: proc 2 at 10 %
insertion: proc 2 at 20 %
insertion: proc 2 at 30 %
insertion: proc 2 at 40 %
insertion: proc 2 at 50 %
insertion: proc 2 at 60 %
insertion: proc 2 at 70 %
insertion: proc 2 at 80 %
insertion: proc 2 at 90 %
insertion: proc 2 at 100 %
INFO: Particle insertion ins: inserted 76 particle templates (mass 9.948377e-05) at step 183001
 - a total of 14068 particle templates (mass 1.841497e-02) inserted so far.
  184000    14068   0.0019561135  6.6882874e-05         0.0051 
insertion: proc 2 at 0 %
insertion: proc 2 at 10 %
insertion: proc 2 at 20 %
insertion: proc 2 at 30 %
insertion: proc 2 at 40 %
insertion: proc 2 at 50 %
insertion: proc 2 at 60 %
insertion: proc 2 at 70 %
insertion: proc 2 at 80 %
insertion: proc 2 at 90 %
insertion: proc 2 at 100 %
INFO: Particle insertion ins: inserted 76 particle templates (mass 9.948377e-05) at step 184001
 - a total of 14144 particle templates (mass 1.851445e-02) inserted so far.
  185000    14144   0.0019608228  6.7499047e-05         0.0051 
insertion: proc 2 at 0 %
insertion: proc 2 at 10 %
insertion: proc 2 at 20 %
insertion: proc 2 at 30 %
insertion: proc 2 at 40 %
insertion: proc 2 at 50 %
insertion: proc 2 at 60 %
insertion: proc 2 at 70 %
insertion: proc 2 at 80 %
insertion: proc 2 at 90 %
insertion: proc 2 at 100 %
INFO: Particle insertion ins: inserted 76 particle templates (mass 9.948377e-05) at step 185001
 - a total of 14220 particle templates (mass 1.861394e-02) inserted so far.
  186000    14220   0.0019583815  6.9049351e-05         0.0051 
insertion: proc 2 at 0 %
insertion: proc 2 at 10 %
insertion: proc 2 at 20 %
insertion: proc 2 at 30 %
insertion: proc 2 at 40 %
insertion: proc 2 at 50 %
insertion: proc 2 at 60 %
insertion: proc 2 at 70 %
insertion: proc 2 at 80 %
insertion: proc 2 at 90 %
insertion: proc 2 at 100 %
INFO: Particle insertion ins: inserted 76 particle templates (mass 9.948377e-05) at step 186001
 - a total of 14296 particle templates (mass 1.871342e-02) inserted so far.
  187000    14296   0.0019579427   6.758203e-05         0.0051 
insertion: proc 2 at 0 %
insertion: proc 2 at 10 %
insertion: proc 2 at 20 %
insertion: proc 2 at 30 %
insertion: proc 2 at 40 %
insertion: proc 2 at 50 %
insertion: proc 2 at 60 %
insertion: proc 2 at 70 %
insertion: proc 2 at 80 %
insertion: proc 2 at 90 %
insertion: proc 2 at 100 %
INFO: Particle insertion ins: inserted 76 particle templates (mass 9.948377e-05) at step 187001
 - a total of 14372 particle templates (mass 1.881290e-02) inserted so far.
  188000    14372   0.0019564627  6.7457438e-05         0.0051 
insertion: proc 2 at 0 %
insertion: proc 2 at 10 %
insertion: proc 2 at 20 %
insertion: proc 2 at 30 %
insertion: proc 2 at 40 %
insertion: proc 2 at 50 %
insertion: proc 2 at 60 %
insertion: proc 2 at 70 %
insertion: proc 2 at 80 %
insertion: proc 2 at 90 %
insertion: proc 2 at 100 %
INFO: Particle insertion ins: inserted 77 particle templates (mass 1.007928e-04) at step 188001
 - a total of 14449 particle templates (mass 1.891370e-02) inserted so far.
  189000    14449   0.0019656601  6.6017729e-05         0.0051 
insertion: proc 2 at 0 %
insertion: proc 2 at 10 %
insertion: proc 2 at 20 %
insertion: proc 2 at 30 %
insertion: proc 2 at 40 %
insertion: proc 2 at 50 %
insertion: proc 2 at 60 %
insertion: proc 2 at 70 %
insertion: proc 2 at 80 %
insertion: proc 2 at 90 %
insertion: proc 2 at 100 %
INFO: Particle insertion ins: inserted 76 particle templates (mass 9.948377e-05) at step 189001
 - a total of 14525 particle templates (mass 1.901318e-02) inserted so far.
  190000    14525   0.0019617439  6.4762822e-05         0.0051 
insertion: proc 2 at 0 %
insertion: proc 2 at 10 %
insertion: proc 2 at 20 %
insertion: proc 2 at 30 %
insertion: proc 2 at 40 %
insertion: proc 2 at 50 %
insertion: proc 2 at 60 %
insertion: proc 2 at 70 %
insertion: proc 2 at 80 %
insertion: proc 2 at 90 %
insertion: proc 2 at 100 %
INFO: Particle insertion ins: inserted 76 particle templates (mass 9.948377e-05) at step 190001
 - a total of 14601 particle templates (mass 1.911266e-02) inserted so far.
  191000    14601   0.0019617655  6.5543686e-05         0.0051 
insertion: proc 2 at 0 %
insertion: proc 2 at 10 %
insertion: proc 2 at 20 %
insertion: proc 2 at 30 %
insertion: proc 2 at 40 %
insertion: proc 2 at 50 %
insertion: proc 2 at 60 %
insertion: proc 2 at 70 %
insertion: proc 2 at 80 %
insertion: proc 2 at 90 %
insertion: proc 2 at 100 %
INFO: Particle insertion ins: inserted 76 particle templates (mass 9.948377e-05) at step 191001
 - a total of 14677 particle templates (mass 1.921215e-02) inserted so far.
  192000    14677   0.0019681217  6.5554915e-05         0.0051 
insertion: proc 2 at 0 %
insertion: proc 2 at 10 %
insertion: proc 2 at 20 %
insertion: proc 2 at 30 %
insertion: proc 2 at 40 %
insertion: proc 2 at 50 %
insertion: proc 2 at 60 %
insertion: proc 2 at 70 %
insertion: proc 2 at 80 %
insertion: proc 2 at 90 %
insertion: proc 2 at 100 %
INFO: Particle insertion ins: inserted 77 particle templates (mass 1.007928e-04) at step 192001
 - a total of 14754 particle templates (mass 1.931294e-02) inserted so far.
  193000    14754   0.0019578446  6.5913042e-05         0.0051 
insertion: proc 2 at 0 %
insertion: proc 2 at 10 %
insertion: proc 2 at 20 %
insertion: proc 2 at 30 %
insertion: proc 2 at 40 %
insertion: proc 2 at 50 %
insertion: proc 2 at 60 %
insertion: proc 2 at 70 %
insertion: proc 2 at 80 %
insertion: proc 2 at 90 %
insertion: proc 2 at 100 %
INFO: Particle insertion ins: inserted 76 particle templates (mass 9.948377e-05) at step 193001
 - a total of 14830 particle templates (mass 1.941242e-02) inserted so far.
  194000    14830   0.0019583284  6.7606893e-05         0.0051 
insertion: proc 2 at 0 %
insertion: proc 2 at 10 %
insertion: proc 2 at 20 %
insertion: proc 2 at 30 %
insertion: proc 2 at 40 %
insertion: proc 2 at 50 %
insertion: proc 2 at 60 %
insertion: proc 2 at 70 %
insertion: proc 2 at 80 %
insertion: proc 2 at 90 %
insertion: proc 2 at 100 %
INFO: Particle insertion ins: inserted 76 particle templates (mass 9.948377e-05) at step 194001
 - a total of 14906 particle templates (mass 1.951191e-02) inserted so far.
  195000    14906   0.0019618383  6.5564384e-05         0.0051 
insertion: proc 2 at 0 %
insertion: proc 2 at 10 %
insertion: proc 2 at 20 %
insertion: proc 2 at 30 %
insertion: proc 2 at 40 %
insertion: proc 2 at 50 %
insertion: proc 2 at 60 %
insertion: proc 2 at 70 %
insertion: proc 2 at 80 %
insertion: proc 2 at 90 %
insertion: proc 2 at 100 %
INFO: Particle insertion ins: inserted 77 particle templates (mass 1.007928e-04) at step 195001
 - a total of 14983 particle templates (mass 1.961270e-02) inserted so far.
  196000    14983    0.001955191  6.5336207e-05         0.0051 
insertion: proc 2 at 0 %
insertion: proc 2 at 10 %
insertion: proc 2 at 20 %
insertion: proc 2 at 30 %
insertion: proc 2 at 40 %
insertion: proc 2 at 50 %
insertion: proc 2 at 60 %
insertion: proc 2 at 70 %
insertion: proc 2 at 80 %
insertion: proc 2 at 90 %
insertion: proc 2 at 100 %
INFO: Particle insertion ins: inserted 76 particle templates (mass 9.948377e-05) at step 196001
 - a total of 15059 particle templates (mass 1.971218e-02) inserted so far.
  197000    15059   0.0019521619  6.7636237e-05         0.0051 
insertion: proc 2 at 0 %
insertion: proc 2 at 10 %
insertion: proc 2 at 20 %
insertion: proc 2 at 30 %
insertion: proc 2 at 40 %
insertion: proc 2 at 50 %
insertion: proc 2 at 60 %
insertion: proc 2 at 70 %
insertion: proc 2 at 80 %
insertion: proc 2 at 90 %
insertion: proc 2 at 100 %
INFO: Particle insertion ins: inserted 77 particle templates (mass 1.007928e-04) at step 197001
 - a total of 15136 particle templates (mass 1.981298e-02) inserted so far.
  198000    15136   0.0019500005  6.5682061e-05         0.0051 
insertion: proc 2 at 0 %
insertion: proc 2 at 10 %
insertion: proc 2 at 20 %
insertion: proc 2 at 30 %
insertion: proc 2 at 40 %
insertion: proc 2 at 50 %
insertion: proc 2 at 60 %
insertion: proc 2 at 70 %
insertion: proc 2 at 80 %
insertion: proc 2 at 90 %
insertion: proc 2 at 100 %
INFO: Particle insertion ins: inserted 77 particle templates (mass 1.007928e-04) at step 198001
 - a total of 15213 particle templates (mass 1.991377e-02) inserted so far.
  199000    15213   0.0019516252  6.4822226e-05         0.0051 
insertion: proc 2 at 0 %
insertion: proc 2 at 10 %
insertion: proc 2 at 20 %
insertion: proc 2 at 30 %
insertion: proc 2 at 40 %
insertion: proc 2 at 50 %
insertion: proc 2 at 60 %
insertion: proc 2 at 70 %
insertion: proc 2 at 80 %
insertion: proc 2 at 90 %
insertion: proc 2 at 100 %
INFO: Particle insertion ins: inserted 65 particle templates (mass 8.508480e-05) at step 199001
 - a total of 15278 particle templates (mass 1.999886e-02) inserted so far.
  200000    15278   0.0019509877  6.7635496e-05         0.0051 
  201000    15278   0.0019534139   6.721317e-05         0.0051 
  202000    15278   0.0019378106  6.4182414e-05         0.0051 
  203000    15278    0.001930962  6.5663415e-05         0.0051 
  204000    15278   0.0019234601  6.5835137e-05         0.0051 
  205000    15278   0.0019005383  6.4934246e-05         0.0051 
  206000    15278   0.0018776075  6.4741216e-05         0.0051 
  207000    15278   0.0018528016   6.454815e-05         0.0051 
  208000    15278    0.001802827  6.4886111e-05         0.0051 
  209000    15278   0.0017584179  6.4690069e-05         0.0051 
  210000    15278   0.0016935445  6.3913811e-05         0.0051 
  211000    15278    0.001621402  6.8631452e-05         0.0051 
  212000    15278   0.0015495719  6.8892876e-05         0.0051 
  213000    15278   0.0014543345   6.631937e-05         0.0051 
  214000    15278   0.0013407013  6.6263059e-05         0.0051 
  215000    15278   0.0012126342  6.6038558e-05         0.0051 
  216000    15278   0.0010617903  6.7320834e-05         0.0051 
  217000    15278  0.00090840422   6.430073e-05         0.0051 
  218000    15278  0.00072627292  6.7556959e-05         0.0051 
  219000    15278  0.00053642026  6.9307209e-05         0.0051 
  220000    15278  0.00031893091   6.666122e-05         0.0051 
  221000    15278  0.00012341173   5.910756e-05         0.0051 
  222000    15278  7.7708971e-05  4.1531571e-05         0.0051 
  223000    15278  5.7488045e-05  3.1702293e-05         0.0051 
  224000    15278  4.5602717e-05  2.4579197e-05         0.0051 
  225000    15278  3.6019837e-05  1.9530553e-05         0.0051 
  226000    15278  2.9191737e-05  1.4836335e-05         0.0051 
  227000    15278  2.2963798e-05  1.0241858e-05         0.0051 
  228000    15278  1.8485565e-05  7.2126387e-06         0.0051 
  229000    15278   1.318067e-05    5.35032e-06         0.0051 
  230000    15278  9.2360513e-06  3.8597007e-06         0.0051 
  231000    15278  7.4399539e-06  2.7961092e-06         0.0051 
  232000    15278  5.5934213e-06  2.1729913e-06         0.0051 
  233000    15278  3.9734594e-06  1.7125286e-06         0.0051 
  234000    15278  2.4600703e-06  1.3121261e-06         0.0051 
  235000    15278  2.3558147e-06  9.2950054e-07         0.0051 
  236000    15278  1.1179672e-06  7.2723447e-07         0.0051 
  237000    15278  5.8385301e-07  5.9857003e-07         0.0051 
  238000    15278  4.2458191e-07  4.8061729e-07         0.0051 
  239000    15278   3.576012e-07  3.2040976e-07         0.0051 
  240000    15278  2.4044318e-07  2.2575833e-07         0.0051 
  241000    15278  2.0315183e-07  1.7330029e-07         0.0051 
  242000    15278  1.6671543e-07  1.1592077e-07         0.0051 
  243000    15278  1.9073265e-07  1.0113182e-07         0.0051 
  244000    15278  1.0293126e-07  6.8504608e-08         0.0051 
  245000    15278  3.0829541e-08  4.2898308e-08         0.0051 
  246000    15278  1.8785298e-08  3.2641717e-08         0.0051 
  247000    15278  1.0670428e-08   2.048714e-08         0.0051 
  248000    15278  8.8198556e-09   1.150239e-08         0.0051 
  249000    15278  8.2470842e-09  7.2793175e-09         0.0051 
  250000    15278  5.4576277e-09  3.6718296e-09         0.0051 
  251000    15278  2.8526545e-09  2.1753945e-09         0.0051 
  252000    15278  2.1405988e-09   2.058391e-09         0.0051 
  253000    15278  1.4493663e-09  1.8376517e-09         0.0051 
  254000    15278  1.3354267e-09  1.4243612e-09         0.0051 
  255000    15278  9.4694478e-10  1.0644243e-09         0.0051 
  256000    15278  8.9393194e-10  1.0306843e-09         0.0051 
  257000    15278  8.3846633e-10  1.0148935e-09         0.0051 
  258000    15278  7.6897707e-10   9.338457e-10         0.0051 
  259000    15278  6.8226779e-10  8.2691286e-10         0.0051 
  260000    15278  6.3658124e-10  7.8787167e-10         0.0051 
  261000    15278   6.321207e-10   7.657482e-10         0.0051 
  262000    15278  5.9653108e-10  7.4054803e-10         0.0051 
  263000    15278  5.8590006e-10  7.2048505e-10         0.0051 
  264000    15278  5.9500721e-10  7.0752981e-10         0.0051 
  265000    15278  5.9926074e-10  6.9208909e-10         0.0051 
  266000    15278  5.7014837e-10  6.8010852e-10         0.0051 
  267000    15278  6.0675062e-10  6.7210654e-10         0.0051 
  268000    15278  5.3929716e-10  6.4812171e-10         0.0051 
  269000    15278  5.6365038e-10  6.4043079e-10         0.0051 
  270000    15278  5.5427415e-10  6.1867354e-10         0.0051 
  271000    15278  5.2127833e-10  6.3261754e-10         0.0051 
  272000    15278  5.6333477e-10   6.380133e-10         0.0051 
  273000    15278  5.5976466e-10  6.4320468e-10         0.0051 
  274000    15278  5.6011805e-10   6.454341e-10         0.0051 
  275000    15278  5.7844001e-10  6.3871502e-10         0.0051 
  276000    15278  5.1999078e-10  6.2431473e-10         0.0051 
  277000    15278  5.3704032e-10  6.1210345e-10         0.0051 
  278000    15278  5.2058423e-10   6.219435e-10         0.0051 
  279000    15278  5.6081764e-10  6.1122296e-10         0.0051 
  280000    15278  5.0009755e-10   6.112355e-10         0.0051 
  281000    15278   5.609783e-10  6.2847271e-10         0.0051 
  282000    15278  5.2948488e-10  6.0906133e-10         0.0051 
  283000    15278  5.4266011e-10  6.1606688e-10         0.0051 
  284000    15278  5.0402506e-10  5.9422188e-10         0.0051 
  285000    15278  5.3493756e-10  6.0761856e-10         0.0051 
  286000    15278  5.1159629e-10  6.1445471e-10         0.0051 
  287000    15278  5.6107387e-10   5.897463e-10         0.0051 
  288000    15278  5.4309502e-10  6.2584513e-10         0.0051 
  289000    15278  5.5578686e-10  5.8630056e-10         0.0051 
  290000    15278  5.0939859e-10   6.064467e-10         0.0051 
  291000    15278  5.6760956e-10  6.1343106e-10         0.0051 
  292000    15278  5.2040698e-10  5.9378899e-10         0.0051 
  293000    15278   5.398483e-10  6.0060254e-10         0.0051 
  294000    15278  5.2627321e-10  5.9816662e-10         0.0051 
  295000    15278  5.0963791e-10  5.9310518e-10         0.0051 
  296000    15278  5.3736085e-10  5.9176036e-10         0.0051 
  297000    15278  5.0287279e-10   5.878857e-10         0.0051 
  298000    15278   5.633921e-10  5.9843068e-10         0.0051 
  299000    15278  5.1438147e-10  5.9956442e-10         0.0051 
  300000    15278  5.4985032e-10  5.7434324e-10         0.0051 
  301000    15278  5.1247549e-10  5.8571615e-10         0.0051 
  302000    15278   5.319838e-10  5.6509726e-10         0.0051 
  303000    15278  5.0426069e-10  5.9357545e-10         0.0051 
  304000    15278  5.5456664e-10  5.8801635e-10         0.0051 
  305000    15278  5.0619413e-10  5.6575982e-10         0.0051 
  306000    15278  5.3062952e-10  5.7509538e-10         0.0051 
  307000    15278  5.0787089e-10  5.6718597e-10         0.0051 
  308000    15278  4.9639845e-10   5.508899e-10         0.0051 
  309000    15278  4.8790428e-10  5.4856573e-10         0.0051 
  310000    15278  5.4415174e-10   5.597434e-10         0.0051 
  311000    15278  5.0867983e-10  5.4932837e-10         0.0051 
  312000    15278  5.4396044e-10  5.5826376e-10         0.0051 
  313000    15278   5.161277e-10  5.6611983e-10         0.0051 
  314000    15278  5.0156343e-10  5.6947228e-10         0.0051 
  315000    15278  5.4714908e-10  5.6020757e-10         0.0051 
  316000    15278  5.4245121e-10  5.5026842e-10         0.0051 
  317000    15278  5.3657241e-10   5.498372e-10         0.0051 
  318000    15278  5.2367598e-10  5.4747156e-10         0.0051 
  319000    15278  5.2303417e-10  5.5989434e-10         0.0051 
  320000    15278  5.2669261e-10  5.5746802e-10         0.0051 
  321000    15278  5.1362825e-10  5.5380205e-10         0.0051 
  322000    15278  5.3902586e-10  5.5136783e-10         0.0051 
  323000    15278  5.2120681e-10  5.6983879e-10         0.0051 
  324000    15278  5.3911732e-10  5.5280964e-10         0.0051 
  325000    15278  5.1321341e-10  5.4702967e-10         0.0051 
  326000    15278   5.587014e-10  5.5611435e-10         0.0051 
  327000    15278  5.2920161e-10  5.4922378e-10         0.0051 
  328000    15278  5.4134145e-10  5.5976906e-10         0.0051 
  329000    15278   5.560106e-10  5.6052822e-10         0.0051 
  330000    15278  5.1829211e-10  5.5492791e-10         0.0051 
  331000    15278  5.7307742e-10  5.7788013e-10         0.0051 
  332000    15278   5.379584e-10  5.5168173e-10         0.0051 
  333000    15278  5.3124795e-10  5.5538172e-10         0.0051 
  334000    15278  4.9748587e-10  5.4645051e-10         0.0051 
  335000    15278  5.1368397e-10  5.3924841e-10         0.0051 
  336000    15278  4.9630619e-10  5.3031225e-10         0.0051 
  337000    15278  5.2379028e-10  5.4216286e-10         0.0051 
  338000    15278  5.2103909e-10  5.5346732e-10         0.0051 
  339000    15278  5.2791564e-10  5.7155959e-10         0.0051 
  340000    15278  5.4013621e-10  5.6686165e-10         0.0051 
  341000    15278   5.038232e-10  5.4863024e-10         0.0051 
  342000    15278  4.8783069e-10  5.2994633e-10         0.0051 
  343000    15278  4.8658931e-10  5.3585458e-10         0.0051 
  344000    15278  4.7953744e-10  5.3339492e-10         0.0051 
  345000    15278  4.9770521e-10  5.2308553e-10         0.0051 
  346000    15278  4.9892897e-10  5.2112773e-10         0.0051 
  347000    15278  5.0618763e-10   5.237527e-10         0.0051 
  348000    15278   5.339093e-10  5.3082426e-10         0.0051 
  349000    15278  5.0316052e-10  5.2036803e-10         0.0051 
  350000    15278  4.7485588e-10  5.0094675e-10         0.0051 
Loop time of 3749.81 on 4 procs for 349999 steps with 15278 atoms, finish time Wed Jul 29 12:38:22 2020


Pair  time (%) = 266.698 (7.11232)
Neigh time (%) = 619.099 (16.5101)
Comm  time (%) = 180.236 (4.80653)
Outpt time (%) = 19.9857 (0.53298)
Other time (%) = 2663.79 (71.038)

Nlocal:    3819.5 ave 15278 max 0 min
Histogram: 3 0 0 0 0 0 0 0 0 1
Nghost:    0 ave 0 max 0 min
Histogram: 4 0 0 0 0 0 0 0 0 0
Neighs:    16398.5 ave 65594 max 0 min
Histogram: 3 0 0 0 0 0 0 0 0 1

Total # of neighbors = 65594
Ave neighs/atom = 4.29336
Neighbor list builds = 79601
Dangerous builds = 0

write_restart   post/restart/liggghts.restart
System init for write_restart ...
