thermo_log      ../DEM/post/thermo.txt

atom_style      granular
atom_modify     map array
communicate     single vel yes

boundary        f f f
newton          off

units           si
processors      2 2 1

# read the restart file
read_restart    ../DEM/post/restart/liggghts.restart
WARNING: Restart file version does not match LIGGGHTS version (../read_restart.cpp:507)
WARNING: Restart file used different 3d processor grid (../read_restart.cpp:587)
  orthogonal box = (-0.05 -0.05 -0.01) to (0.05 0.05 0.5)
  2 by 2 by 1 MPI processor grid
  15278 atoms

neighbor        0.0005 bin
neigh_modify    delay 0

# Material properties required for granular pair styles
fix         m1 all property/global youngsModulus peratomtype 5e6 5e6
fix         m2 all property/global poissonsRatio peratomtype 0.3 0.3
fix         m3 all property/global coefficientRestitution peratomtypepair 2 1 0.5 0.5 0.5
fix         m4 all property/global coefficientFriction peratomtypepair 2 1 0.55 0.55 0.55
fix         m5 all property/global coefficientRollingFriction peratomtypepair 2 0 0.000016 0.000016 0.000016

# pair style
pair_style  gran model hertz tangential history # Hertzian without cohesion
pair_coeff  * *

# timestep, gravity
timestep    0.00001
fix         gravi all gravity 9.81 vector 0.0 0.0 -1.0

#import mesh from cad:
fix  fb1 all mesh/surface file ../DEM/STL/fluidizedbedriser1.stl type 1 scale 0.0254
INFO: mesh file (../DEM/STL/fluidizedbedriser1.stl) is required, but data will be taken from restart file (../fix_mesh.cpp:417)
Resetting global state of Fix fb1 Style mesh/surface from restart file info
fix  fb2 all mesh/surface file ../DEM/STL/fluidizedbedriser2.stl type 1 scale 0.0254
INFO: mesh file (../DEM/STL/fluidizedbedriser2.stl) is required, but data will be taken from restart file (../fix_mesh.cpp:417)
Resetting global state of Fix fb2 Style mesh/surface from restart file info
fix  fbBioin all mesh/surface file ../DEM/STL/fluidizedbedBioin.stl type 1 scale 0.0254
INFO: mesh file (../DEM/STL/fluidizedbedBioin.stl) is required, but data will be taken from restart file (../fix_mesh.cpp:417)
Resetting global state of Fix fbBioin Style mesh/surface from restart file info
fix  fbGasin all mesh/surface file ../DEM/STL/fluidizedbedGasin.stl type 1 scale 0.0254
INFO: mesh file (../DEM/STL/fluidizedbedGasin.stl) is required, but data will be taken from restart file (../fix_mesh.cpp:417)
Resetting global state of Fix fbGasin Style mesh/surface from restart file info
fix  fbOut all mesh/surface file ../DEM/STL/fluidizedbedOut.stl type 1 scale 0.0254
INFO: mesh file (../DEM/STL/fluidizedbedOut.stl) is required, but data will be taken from restart file (../fix_mesh.cpp:417)
Resetting global state of Fix fbOut Style mesh/surface from restart file info

#use the imported mesh as granular wall
#fix  walls all wall/gran model hertz tangential history rolling_friction epsd2 mesh n_meshes 2 meshes fb fbGasin
fix	walls all wall/gran model hertz tangential history mesh n_meshes 4 meshes fb1 fb2  fbGasin fbBioin
Resetting global state of Fix n_neighs_mesh_fb1 Style property/atom from restart file info
Resetting per-atom state of Fix n_neighs_mesh_fb1 Style property/atom from restart file info
Resetting global state of Fix tracker_fb1 Style contacthistory/mesh from restart file info
Resetting per-atom state of Fix tracker_fb1 Style contacthistory/mesh from restart file info
Resetting global state of Fix n_neighs_mesh_fb2 Style property/atom from restart file info
Resetting per-atom state of Fix n_neighs_mesh_fb2 Style property/atom from restart file info
Resetting global state of Fix tracker_fb2 Style contacthistory/mesh from restart file info
Resetting per-atom state of Fix tracker_fb2 Style contacthistory/mesh from restart file info
Resetting global state of Fix n_neighs_mesh_fbGasin Style property/atom from restart file info
Resetting per-atom state of Fix n_neighs_mesh_fbGasin Style property/atom from restart file info
Resetting global state of Fix tracker_fbGasin Style contacthistory/mesh from restart file info
Resetting per-atom state of Fix tracker_fbGasin Style contacthistory/mesh from restart file info
Resetting global state of Fix n_neighs_mesh_fbBioin Style property/atom from restart file info
Resetting per-atom state of Fix n_neighs_mesh_fbBioin Style property/atom from restart file info
Resetting global state of Fix tracker_fbBioin Style contacthistory/mesh from restart file info
Resetting per-atom state of Fix tracker_fbBioin Style contacthistory/mesh from restart file info


#particle distributions and insertion ### insert biomass

region     bc2 cylinder x 0.0 0.0444 0.0125 0.035 0.038 units box
fix        pts2 all particletemplate/sphere 49979693 atom_type 2 density constant 294 radius constant 0.001
fix        pdd2 all particledistribution/discrete 86028157 1 pts2 1.0
#fix        ins2 all insert/stream seed 86028121 distributiontemplate pdd2 mass 0.002 massrate 0.0001 insert_every 2000 overlapcheck yes vel constant -0.1 0.0 0.0  insertion_face fbBioin ntry_mc 10000
#extrude_length 5
fix        ins2 all insert/rate/region seed 86028121 distributiontemplate pdd2 mass 0.002 massrate 0.001 insert_every 1000 overlapcheck yes vel constant -0.01 0.0 0.0 region bc2 ntry_mc 10000

# apply nve integration to all particles that are inserted as single particles
fix         integr all nve/sphere

# cfd coupling
fix     cfd all couple/cfd couple_every 100 mpi
couple_every as specified in LIGGGHTS is overriden by calling external program (../fix_cfd_coupling.cpp:114)
fix     cfd2 all couple/cfd/force

# apply nve integration to all particles that are inserted as single particles
fix     integr all nve/sphere

# center of mass
compute     centerOfMass all com

# compute total dragforce
compute     dragtotal all reduce sum f_dragforce[1] f_dragforce[2] f_dragforce[3]

# screen output
 compute         rke all erotate/sphere
# Define a computation that calculates the rotational kinetic energy of a group of spherical particles. The rotational energy is computed as 1/2Iw^2, where I is the moment of inertia for a sphere and w is # the particle’s angular velocity.
thermo_style    custom step atoms ke c_rke vol c_centerOfMass[3] c_dragtotal[1] c_dragtotal[2] c_dragtotal[3]
thermo          100
thermo_modify   lost ignore norm no
compute_modify  thermo_temp dynamic yes
WARNING: Changing thermo_temp compute object. This object is deprecated and will be removed in the future. (../compute.cpp:161)

dump        dmp all custom/vtk 1000 post/dump*.liggghts_restart.vtk id type x y z vx vy vz fx fy fz f_dragforce[1] f_dragforce[2] f_dragforce[3] radius

run 1
Resetting global state of Fix contacthistory Style contacthistory from restart file info
Resetting per-atom state of Fix contacthistory Style contacthistory from restart file info
Setting up run at Tue Aug  4 20:50:15 2020

INFO: Particle insertion ins2: 8.120150 particles every 1000 steps - particle rate 812.015016, (mass rate 1.000000e-03)
      1624 particles (mass 1.999963e-03) within 199000 steps
Memory usage per processor = 24.2074 Mbytes
    Step    Atoms         KinEng            rke         Volume       centerOf       dragtota       dragtota       dragtota 
  350000    15278  4.7485588e-10  5.0094675e-10         0.0051   0.0030943355              0              0              0 
INFO: Particle insertion ins2: inserted 8 particle templates (mass 9.852035e-06) at step 350001
 - a total of 8 particle templates (mass 9.852035e-06) inserted so far.
  350001    15286  0.00036392105  5.2964707e-10         0.0051   0.0031155104              0              0              0 
Loop time of 0.0224137 on 4 procs for 1 steps with 15286 atoms, finish time Tue Aug  4 20:50:16 2020


Pair  time (%) = 0.00237596 (10.6005)
Neigh time (%) = 0.00792128 (35.3413)
Comm  time (%) = 0.00194538 (8.67942)
Outpt time (%) = 0.000257492 (1.14882)
Other time (%) = 0.00991356 (44.23)

Nlocal:    3821.5 ave 3850 max 3780 min
Histogram: 1 0 0 0 1 0 0 0 0 2
Nghost:    771 ave 783 max 766 min
Histogram: 2 1 0 0 0 0 0 0 0 1
Neighs:    27105.2 ave 27400 max 26830 min
Histogram: 1 0 0 0 2 0 0 0 0 1

Total # of neighbors = 108421
Ave neighs/atom = 7.09283
Neighbor list builds = 1
Dangerous builds = 0

run 100    
Setting up run at Tue Aug  4 20:50:16 2020

Memory usage per processor = 24.2077 Mbytes
    Step    Atoms         KinEng            rke         Volume       centerOf       dragtota       dragtota       dragtota 
  350001    15286  0.00036392105  5.2964707e-10         0.0051   0.0031139764              0              0              0 
CFD Coupling established at step 350100
  350100    15286   0.0007349194  2.7502449e-05         0.0051   0.0031141786              0              0              0 
  350101    15286  0.00073341467  2.7897473e-05         0.0051   0.0031141782              0              0              0 
Loop time of 1.94452 on 4 procs for 100 steps with 15286 atoms, finish time Tue Aug  4 20:50:18 2020


Pair  time (%) = 0.243234 (12.5087)
Neigh time (%) = 0.795451 (40.9072)
Comm  time (%) = 0.0960137 (4.93765)
Outpt time (%) = 0.000475526 (0.0244546)
Other time (%) = 0.809349 (41.622)

Nlocal:    3821.5 ave 3850 max 3779 min
Histogram: 1 0 0 0 1 0 0 0 0 2
Nghost:    771.25 ave 783 max 766 min
Histogram: 2 0 1 0 0 0 0 0 0 1
Neighs:    27107.5 ave 27403 max 26831 min
Histogram: 1 0 0 0 2 0 0 0 0 1

Total # of neighbors = 108430
Ave neighs/atom = 7.09342
Neighbor list builds = 100
Dangerous builds = 100
run 100    
Setting up run at Tue Aug  4 20:50:18 2020

Memory usage per processor = 24.2077 Mbytes
    Step    Atoms         KinEng            rke         Volume       centerOf       dragtota       dragtota       dragtota 
  350101    15286  0.00073341467  2.7897473e-05         0.0051   0.0031141782   0.0018539127  0.00048536343 -0.00034870729 
CFD Coupling established at step 350200
  350200    15286  0.00054866681  1.4658145e-05         0.0051   0.0031140733   0.0018539127  0.00048536343 -0.00034870729 
  350201    15286  0.00054825284  1.4658145e-05         0.0051   0.0031140754   0.0018539127  0.00048536343 -0.00034870729 
Loop time of 1.96747 on 4 procs for 100 steps with 15286 atoms, finish time Tue Aug  4 20:50:20 2020


Pair  time (%) = 0.246348 (12.521)
Neigh time (%) = 0.803255 (40.8268)
Comm  time (%) = 0.0981147 (4.98684)
Outpt time (%) = 0.00048393 (0.0245966)
Other time (%) = 0.819269 (41.6407)

Nlocal:    3821.5 ave 3850 max 3779 min
Histogram: 1 0 0 0 1 0 0 0 0 2
Nghost:    771 ave 783 max 766 min
Histogram: 2 1 0 0 0 0 0 0 0 1
Neighs:    27110 ave 27406 max 26834 min
Histogram: 1 0 0 0 2 0 0 0 0 1

Total # of neighbors = 108440
Ave neighs/atom = 7.09407
Neighbor list builds = 100
Dangerous builds = 100
run 100    
Setting up run at Tue Aug  4 20:50:20 2020

Memory usage per processor = 24.2077 Mbytes
    Step    Atoms         KinEng            rke         Volume       centerOf       dragtota       dragtota       dragtota 
  350201    15286  0.00054825284  1.4658145e-05         0.0051   0.0031140754  0.00099816367 -0.00046744211      0.0100596 
CFD Coupling established at step 350300
  350300    15286  0.00024406419  2.4445655e-05         0.0051   0.0031147214  0.00099816367 -0.00046744211      0.0100596 
  350301    15286  0.00024414164  2.4445659e-05         0.0051   0.0031147283  0.00099816367 -0.00046744211      0.0100596 
Loop time of 1.38601 on 4 procs for 100 steps with 15286 atoms, finish time Tue Aug  4 20:50:22 2020


Pair  time (%) = 0.239972 (17.3139)
Neigh time (%) = 0.491666 (35.4735)
Comm  time (%) = 0.0780864 (5.63391)
Outpt time (%) = 0.00109679 (0.0791326)
Other time (%) = 0.575188 (41.4996)

Nlocal:    3821.5 ave 3850 max 3779 min
Histogram: 1 0 0 0 1 0 0 0 0 2
Nghost:    771.5 ave 783 max 766 min
Histogram: 1 2 0 0 0 0 0 0 0 1
Neighs:    27106.8 ave 27402 max 26831 min
Histogram: 1 0 0 0 2 0 0 0 0 1

Total # of neighbors = 108427
Ave neighs/atom = 7.09322
Neighbor list builds = 61
Dangerous builds = 23
run 100    
Setting up run at Tue Aug  4 20:50:22 2020

Memory usage per processor = 24.2077 Mbytes
    Step    Atoms         KinEng            rke         Volume       centerOf       dragtota       dragtota       dragtota 
  350301    15286  0.00024414164  2.4445659e-05         0.0051   0.0031147283 -0.00010156014 -0.00046320944   0.0061268268 
CFD Coupling established at step 350400
  350400    15286  0.00023201137  2.4711457e-05         0.0051   0.0031147397 -0.00010156014 -0.00046320944   0.0061268268 
  350401    15286  0.00023191018  2.4711458e-05         0.0051   0.0031147316 -0.00010156014 -0.00046320944   0.0061268268 
Loop time of 1.16297 on 4 procs for 100 steps with 15286 atoms, finish time Tue Aug  4 20:50:23 2020


Pair  time (%) = 0.230068 (19.7828)
Neigh time (%) = 0.402881 (34.6424)
Comm  time (%) = 0.058242 (5.00804)
Outpt time (%) = 0.000594556 (0.0511239)
Other time (%) = 0.471185 (40.5156)

Nlocal:    3821.5 ave 3852 max 3778 min
Histogram: 1 0 0 0 1 0 0 0 0 2
Nghost:    771.25 ave 783 max 766 min
Histogram: 2 1 0 0 0 0 0 0 0 1
Neighs:    27105 ave 27399 max 26829 min
Histogram: 1 0 0 0 2 0 0 0 0 1

Total # of neighbors = 108420
Ave neighs/atom = 7.09276
Neighbor list builds = 50
Dangerous builds = 0
run 100    
Setting up run at Tue Aug  4 20:50:23 2020

Memory usage per processor = 24.2077 Mbytes
    Step    Atoms         KinEng            rke         Volume       centerOf       dragtota       dragtota       dragtota 
  350401    15286  0.00023191018  2.4711458e-05         0.0051   0.0031147316  0.00016367179 -0.00037350513   0.0056129571 
CFD Coupling established at step 350500
  350500    15286  0.00022217838  2.4304282e-05         0.0051   0.0031136017  0.00016367179 -0.00037350513   0.0056129571 
  350501    15286  0.00022208816  2.4304284e-05         0.0051   0.0031135906  0.00016367179 -0.00037350513   0.0056129571 
Loop time of 1.25124 on 4 procs for 100 steps with 15286 atoms, finish time Tue Aug  4 20:50:24 2020


Pair  time (%) = 0.246334 (19.6872)
Neigh time (%) = 0.413266 (33.0285)
Comm  time (%) = 0.0741616 (5.92706)
Outpt time (%) = 0.00382799 (0.305936)
Other time (%) = 0.513649 (41.0512)

Nlocal:    3821.5 ave 3852 max 3777 min
Histogram: 1 0 0 0 1 0 0 0 0 2
Nghost:    771.25 ave 784 max 766 min
Histogram: 2 1 0 0 0 0 0 0 0 1
Neighs:    27108.8 ave 27404 max 26833 min
Histogram: 1 0 0 0 2 0 0 0 0 1

Total # of neighbors = 108435
Ave neighs/atom = 7.09375
Neighbor list builds = 50
Dangerous builds = 0
run 100    
Setting up run at Tue Aug  4 20:50:24 2020

Memory usage per processor = 24.2077 Mbytes
    Step    Atoms         KinEng            rke         Volume       centerOf       dragtota       dragtota       dragtota 
  350501    15286  0.00022208816  2.4304284e-05         0.0051   0.0031135906  0.00023954752 -0.00034037935   0.0052786676 
CFD Coupling established at step 350600
  350600    15286  9.7382625e-05   2.447228e-05         0.0051   0.0031131775  0.00023954752 -0.00034037935   0.0052786676 
  350601    15286  9.7400018e-05  2.4466204e-05         0.0051   0.0031131812  0.00023954752 -0.00034037935   0.0052786676 
Loop time of 1.00775 on 4 procs for 100 steps with 15286 atoms, finish time Tue Aug  4 20:50:26 2020


Pair  time (%) = 0.23633 (23.4513)
Neigh time (%) = 0.302723 (30.0396)
Comm  time (%) = 0.053427 (5.30162)
Outpt time (%) = 0.000572801 (0.0568396)
Other time (%) = 0.414696 (41.1507)

Nlocal:    3821.5 ave 3851 max 3778 min
Histogram: 1 0 0 0 1 0 0 0 0 2
Nghost:    771.25 ave 784 max 766 min
Histogram: 2 1 0 0 0 0 0 0 0 1
Neighs:    27110.2 ave 27408 max 26834 min
Histogram: 1 0 0 0 2 0 0 0 0 1

Total # of neighbors = 108441
Ave neighs/atom = 7.09414
Neighbor list builds = 37
Dangerous builds = 0
run 100    
Setting up run at Tue Aug  4 20:50:26 2020

Memory usage per processor = 24.2077 Mbytes
    Step    Atoms         KinEng            rke         Volume       centerOf       dragtota       dragtota       dragtota 
  350601    15286  9.7400018e-05  2.4466204e-05         0.0051   0.0031131812  7.3974764e-05  0.00022800033     0.00499044 
CFD Coupling established at step 350700
  350700    15286  9.4935758e-05  2.4386958e-05         0.0051    0.003113641  7.3974764e-05  0.00022800033     0.00499044 
  350701    15286  9.4910972e-05   2.438754e-05         0.0051   0.0031136434  7.3974764e-05  0.00022800033     0.00499044 
Loop time of 0.915835 on 4 procs for 100 steps with 15286 atoms, finish time Tue Aug  4 20:50:27 2020


Pair  time (%) = 0.232863 (25.4263)
Neigh time (%) = 0.266227 (29.0693)
Comm  time (%) = 0.0434275 (4.74184)
Outpt time (%) = 0.000746846 (0.0815481)
Other time (%) = 0.372571 (40.681)

Nlocal:    3821.5 ave 3851 max 3779 min
Histogram: 1 0 0 0 1 0 0 0 0 2
Nghost:    771.25 ave 783 max 766 min
Histogram: 2 0 1 0 0 0 0 0 0 1
Neighs:    27105.5 ave 27401 max 26830 min
Histogram: 1 0 0 0 2 0 0 0 0 1

Total # of neighbors = 108422
Ave neighs/atom = 7.0929
Neighbor list builds = 33
Dangerous builds = 0
run 100    
Setting up run at Tue Aug  4 20:50:27 2020

Memory usage per processor = 24.2077 Mbytes
    Step    Atoms         KinEng            rke         Volume       centerOf       dragtota       dragtota       dragtota 
  350701    15286  9.4910972e-05   2.438754e-05         0.0051   0.0031136434  0.00011463777  0.00018856909   0.0049053156 
CFD Coupling established at step 350800
  350800    15286  9.2663606e-05  2.4290963e-05         0.0051   0.0031133432  0.00011463777  0.00018856909   0.0049053156 
  350801    15286  9.2641789e-05  2.4290964e-05         0.0051   0.0031133354  0.00011463777  0.00018856909   0.0049053156 
Loop time of 0.907348 on 4 procs for 100 steps with 15286 atoms, finish time Tue Aug  4 20:50:28 2020


Pair  time (%) = 0.232298 (25.6019)
Neigh time (%) = 0.265848 (29.2995)
Comm  time (%) = 0.038272 (4.21801)
Outpt time (%) = 0.000498593 (0.0549506)
Other time (%) = 0.37043 (40.8256)

Nlocal:    3821.5 ave 3850 max 3779 min
Histogram: 1 0 0 0 1 0 0 0 0 2
Nghost:    771 ave 783 max 766 min
Histogram: 2 1 0 0 0 0 0 0 0 1
Neighs:    27106 ave 27400 max 26830 min
Histogram: 1 0 0 0 2 0 0 0 0 1

Total # of neighbors = 108424
Ave neighs/atom = 7.09303
Neighbor list builds = 33
Dangerous builds = 0
run 100    
Setting up run at Tue Aug  4 20:50:28 2020

Memory usage per processor = 24.2077 Mbytes
    Step    Atoms         KinEng            rke         Volume       centerOf       dragtota       dragtota       dragtota 
  350801    15286  9.2641789e-05  2.4290964e-05         0.0051   0.0031133354  0.00011897765  0.00021139118   0.0048575697 
CFD Coupling established at step 350900
  350900    15286  9.0374071e-05  2.4235467e-05         0.0051   0.0031125144  0.00011897765  0.00021139118   0.0048575697 
  350901    15286  9.0297713e-05  2.4210237e-05         0.0051   0.0031125083  0.00011897765  0.00021139118   0.0048575697 
Loop time of 0.914783 on 4 procs for 100 steps with 15286 atoms, finish time Tue Aug  4 20:50:29 2020


Pair  time (%) = 0.230921 (25.2432)
Neigh time (%) = 0.266325 (29.1135)
Comm  time (%) = 0.0481814 (5.26698)
Outpt time (%) = 0.000532329 (0.0581919)
Other time (%) = 0.368823 (40.3181)

Nlocal:    3821.5 ave 3850 max 3778 min
Histogram: 1 0 0 0 1 0 0 0 0 2
Nghost:    771.25 ave 784 max 766 min
Histogram: 2 1 0 0 0 0 0 0 0 1
Neighs:    27109.5 ave 27404 max 26834 min
Histogram: 1 0 0 0 2 0 0 0 0 1

Total # of neighbors = 108438
Ave neighs/atom = 7.09394
Neighbor list builds = 33
Dangerous builds = 0
run 100    
Setting up run at Tue Aug  4 20:50:29 2020

Memory usage per processor = 24.2077 Mbytes
    Step    Atoms         KinEng            rke         Volume       centerOf       dragtota       dragtota       dragtota 
  350901    15286  9.0297713e-05  2.4210237e-05         0.0051   0.0031125083  0.00013340554  0.00020351339   0.0047917705 
CFD Coupling established at step 351000
  351000    15286   8.754028e-05  2.4118496e-05         0.0051   0.0031124441  0.00013340554  0.00020351339   0.0047917705 
INFO: Particle insertion ins2: inserted 8 particle templates (mass 9.852035e-06) at step 351001
 - a total of 16 particle templates (mass 1.970407e-05) inserted so far.
  351001    15294  0.00018360945  2.4114344e-05         0.0051   0.0031335818  0.00013340554  0.00020351339   0.0047917705 
Loop time of 1.00356 on 4 procs for 100 steps with 15294 atoms, finish time Tue Aug  4 20:50:30 2020


Pair  time (%) = 0.225264 (22.4464)
Neigh time (%) = 0.275586 (27.4607)
Comm  time (%) = 0.0438112 (4.36556)
Outpt time (%) = 0.0975271 (9.71807)
Other time (%) = 0.361377 (36.0093)

Nlocal:    3823.5 ave 3851 max 3782 min
Histogram: 1 0 0 0 1 0 0 0 0 2
Nghost:    771.25 ave 783 max 766 min
Histogram: 2 1 0 0 0 0 0 0 0 1
Neighs:    27108 ave 27403 max 26831 min
Histogram: 1 0 0 0 2 0 0 0 0 1

Total # of neighbors = 108432
Ave neighs/atom = 7.08984
Neighbor list builds = 34
Dangerous builds = 0
run 100    
Setting up run at Tue Aug  4 20:50:30 2020

Memory usage per processor = 24.2078 Mbytes
    Step    Atoms         KinEng            rke         Volume       centerOf       dragtota       dragtota       dragtota 
  351001    15294  0.00018360945  2.4114344e-05         0.0051   0.0031320396  0.00034951252  0.00018992525   0.0047378266 
CFD Coupling established at step 351100
  351100    15294  0.00051802752  1.9242429e-05         0.0051   0.0031322794  0.00034951252  0.00018992525   0.0047378266 
  351101    15294  0.00051798055  1.9242427e-05         0.0051   0.0031322789  0.00034951252  0.00018992525   0.0047378266 
Loop time of 1.1526 on 4 procs for 100 steps with 15294 atoms, finish time Tue Aug  4 20:50:31 2020


Pair  time (%) = 0.226875 (19.6838)
Neigh time (%) = 0.404814 (35.1218)
Comm  time (%) = 0.0569329 (4.93952)
Outpt time (%) = 0.000915825 (0.0794574)
Other time (%) = 0.463061 (40.1754)

Nlocal:    3823.5 ave 3851 max 3782 min
Histogram: 1 0 0 0 1 0 0 0 0 2
Nghost:    771.25 ave 783 max 766 min
Histogram: 2 1 0 0 0 0 0 0 0 1
Neighs:    27105 ave 27400 max 26830 min
Histogram: 1 0 0 0 2 0 0 0 0 1

Total # of neighbors = 108420
Ave neighs/atom = 7.08905
Neighbor list builds = 50
Dangerous builds = 0
run 100    
Setting up run at Tue Aug  4 20:50:31 2020

Memory usage per processor = 24.2078 Mbytes
    Step    Atoms         KinEng            rke         Volume       centerOf       dragtota       dragtota       dragtota 
  351101    15294  0.00051798055  1.9242427e-05         0.0051   0.0031322789   0.0017266794 -7.0604354e-05   0.0048277525 
CFD Coupling established at step 351200
  351200    15294  0.00049169333   1.918543e-05         0.0051   0.0031319009   0.0017266794 -7.0604354e-05   0.0048277525 
  351201    15294  0.00049143102  1.9170994e-05         0.0051   0.0031318947   0.0017266794 -7.0604354e-05   0.0048277525 
Loop time of 1.14157 on 4 procs for 100 steps with 15294 atoms, finish time Tue Aug  4 20:50:32 2020


Pair  time (%) = 0.225831 (19.7826)
Neigh time (%) = 0.402565 (35.2643)
Comm  time (%) = 0.0532427 (4.66401)
Outpt time (%) = 0.000517964 (0.0453731)
Other time (%) = 0.45941 (40.2438)

Nlocal:    3823.5 ave 3850 max 3783 min
Histogram: 1 0 0 0 1 0 0 0 0 2
Nghost:    771.75 ave 783 max 768 min
Histogram: 3 0 0 0 0 0 0 0 0 1
Neighs:    27106 ave 27394 max 26831 min
Histogram: 1 0 0 0 2 0 0 0 0 1

Total # of neighbors = 108424
Ave neighs/atom = 7.08932
Neighbor list builds = 50
Dangerous builds = 0
run 100    
Setting up run at Tue Aug  4 20:50:32 2020

Memory usage per processor = 24.2078 Mbytes
    Step    Atoms         KinEng            rke         Volume       centerOf       dragtota       dragtota       dragtota 
  351201    15294  0.00049143102  1.9170994e-05         0.0051   0.0031318947   0.0016459053 -3.8217101e-05   0.0048235684 
CFD Coupling established at step 351300
  351300    15294  0.00045774607  1.6699473e-05         0.0051    0.003131397   0.0016459053 -3.8217101e-05   0.0048235684 
  351301    15294  0.00045751728  1.6699468e-05         0.0051   0.0031313944   0.0016459053 -3.8217101e-05   0.0048235684 
Loop time of 1.16008 on 4 procs for 100 steps with 15294 atoms, finish time Tue Aug  4 20:50:34 2020


Pair  time (%) = 0.227722 (19.6298)
Neigh time (%) = 0.410538 (35.3887)
Comm  time (%) = 0.0571526 (4.92659)
Outpt time (%) = 0.000757575 (0.0653035)
Other time (%) = 0.463913 (39.9896)

Nlocal:    3823.5 ave 3852 max 3781 min
Histogram: 1 0 0 0 1 0 0 0 0 2
Nghost:    771.75 ave 784 max 766 min
Histogram: 2 0 1 0 0 0 0 0 0 1
Neighs:    27108.8 ave 27403 max 26832 min
Histogram: 1 0 0 0 2 0 0 0 0 1

Total # of neighbors = 108435
Ave neighs/atom = 7.09004
Neighbor list builds = 50
Dangerous builds = 0
run 100    
Setting up run at Tue Aug  4 20:50:34 2020

Memory usage per processor = 24.2078 Mbytes
    Step    Atoms         KinEng            rke         Volume       centerOf       dragtota       dragtota       dragtota 
  351301    15294  0.00045751728  1.6699468e-05         0.0051   0.0031313944    0.001631052 -0.00010891132   0.0047980547 
CFD Coupling established at step 351400
  351400    15294  0.00017154737  1.8267706e-05         0.0051   0.0031314616    0.001631052 -0.00010891132   0.0047980547 
  351401    15294  0.00017162426  1.8267705e-05         0.0051    0.003131464    0.001631052 -0.00010891132   0.0047980547 
Loop time of 1.08664 on 4 procs for 100 steps with 15294 atoms, finish time Tue Aug  4 20:50:35 2020


Pair  time (%) = 0.226586 (20.852)
Neigh time (%) = 0.372657 (34.2944)
Comm  time (%) = 0.0529423 (4.87211)
Outpt time (%) = 0.000436485 (0.0401683)
Other time (%) = 0.434019 (39.9413)

Nlocal:    3823.5 ave 3852 max 3782 min
Histogram: 1 0 0 0 1 0 0 0 0 2
Nghost:    771.25 ave 783 max 766 min
Histogram: 2 0 1 0 0 0 0 0 0 1
Neighs:    27107.2 ave 27404 max 26830 min
Histogram: 1 0 0 0 2 0 0 0 0 1

Total # of neighbors = 108429
Ave neighs/atom = 7.08964
Neighbor list builds = 46
Dangerous builds = 0
run 100    
Setting up run at Tue Aug  4 20:50:35 2020

Memory usage per processor = 24.2078 Mbytes
    Step    Atoms         KinEng            rke         Volume       centerOf       dragtota       dragtota       dragtota 
  351401    15294  0.00017162426  1.8267705e-05         0.0051    0.003131464  8.8876629e-05  0.00021509313   0.0047778693 
CFD Coupling established at step 351500
  351500    15294  0.00016264431  1.6581835e-05         0.0051    0.003131613  8.8876629e-05  0.00021509313   0.0047778693 
  351501    15294  0.00016258033  1.6564968e-05         0.0051   0.0031316136  8.8876629e-05  0.00021509313   0.0047778693 
Loop time of 0.868841 on 4 procs for 100 steps with 15294 atoms, finish time Tue Aug  4 20:50:36 2020


Pair  time (%) = 0.219671 (25.2833)
Neigh time (%) = 0.266326 (30.6531)
Comm  time (%) = 0.0380589 (4.38042)
Outpt time (%) = 0.000475168 (0.0546899)
Other time (%) = 0.344309 (39.6286)

Nlocal:    3823.5 ave 3851 max 3782 min
Histogram: 1 0 0 0 1 0 0 0 0 2
Nghost:    772 ave 784 max 766 min
Histogram: 1 1 1 0 0 0 0 0 0 1
Neighs:    27107 ave 27402 max 26831 min
Histogram: 1 0 0 0 2 0 0 0 0 1

Total # of neighbors = 108428
Ave neighs/atom = 7.08958
Neighbor list builds = 33
Dangerous builds = 0
run 100    
Setting up run at Tue Aug  4 20:50:36 2020

Memory usage per processor = 24.2078 Mbytes
    Step    Atoms         KinEng            rke         Volume       centerOf       dragtota       dragtota       dragtota 
  351501    15294  0.00016258033  1.6564968e-05         0.0051   0.0031316136  0.00012321673  0.00017824109    0.004768929 
CFD Coupling established at step 351600
  351600    15294  0.00015871736  1.6406968e-05         0.0051    0.003131471  0.00012321673  0.00017824109    0.004768929 
  351601    15294  0.00015868055  1.6404856e-05         0.0051   0.0031314685  0.00012321673  0.00017824109    0.004768929 
Loop time of 0.871744 on 4 procs for 100 steps with 15294 atoms, finish time Tue Aug  4 20:50:37 2020


Pair  time (%) = 0.2214 (25.3973)
Neigh time (%) = 0.264494 (30.3407)
Comm  time (%) = 0.0396462 (4.54792)
Outpt time (%) = 0.000463486 (0.0531676)
Other time (%) = 0.345741 (39.6609)

Nlocal:    3823.5 ave 3850 max 3782 min
Histogram: 1 0 0 0 1 0 0 0 0 2
Nghost:    772.5 ave 785 max 766 min
Histogram: 1 1 1 0 0 0 0 0 0 1
Neighs:    27107.2 ave 27393 max 26832 min
Histogram: 1 0 0 0 1 1 0 0 0 1

Total # of neighbors = 108429
Ave neighs/atom = 7.08964
Neighbor list builds = 33
Dangerous builds = 0
run 100    
Setting up run at Tue Aug  4 20:50:37 2020

Memory usage per processor = 24.2078 Mbytes
    Step    Atoms         KinEng            rke         Volume       centerOf       dragtota       dragtota       dragtota 
  351601    15294  0.00015868055  1.6404856e-05         0.0051   0.0031314685  0.00012241404  0.00019374735   0.0047745798 
CFD Coupling established at step 351700
  351700    15294  0.00015517247  1.6095367e-05         0.0051   0.0031313743  0.00012241404  0.00019374735   0.0047745798 
  351701    15294  0.00015513626  1.6090624e-05         0.0051   0.0031313755  0.00012241404  0.00019374735   0.0047745798 
Loop time of 0.870082 on 4 procs for 100 steps with 15294 atoms, finish time Tue Aug  4 20:50:38 2020


Pair  time (%) = 0.223378 (25.6732)
Neigh time (%) = 0.265016 (30.4587)
Comm  time (%) = 0.037086 (4.26235)
Outpt time (%) = 0.000446081 (0.0512688)
Other time (%) = 0.344156 (39.5545)

Nlocal:    3823.5 ave 3851 max 3781 min
Histogram: 1 0 0 0 1 0 0 0 0 2
Nghost:    772.75 ave 785 max 767 min
Histogram: 2 0 1 0 0 0 0 0 0 1
Neighs:    27109.2 ave 27404 max 26832 min
Histogram: 1 0 0 0 2 0 0 0 0 1

Total # of neighbors = 108437
Ave neighs/atom = 7.09017
Neighbor list builds = 33
Dangerous builds = 0
run 100    
Setting up run at Tue Aug  4 20:50:38 2020

Memory usage per processor = 24.2078 Mbytes
    Step    Atoms         KinEng            rke         Volume       centerOf       dragtota       dragtota       dragtota 
  351701    15294  0.00015513626  1.6090624e-05         0.0051   0.0031313755  9.5889236e-05  0.00019885461   0.0047596424 
CFD Coupling established at step 351800
  351800    15294   0.0001515457  1.6019399e-05         0.0051   0.0031316729  9.5889236e-05  0.00019885461   0.0047596424 
  351801    15294  0.00015151525  1.6015119e-05         0.0051   0.0031316765  9.5889236e-05  0.00019885461   0.0047596424 
Loop time of 0.885773 on 4 procs for 100 steps with 15294 atoms, finish time Tue Aug  4 20:50:39 2020


Pair  time (%) = 0.222667 (25.1381)
Neigh time (%) = 0.266219 (30.055)
Comm  time (%) = 0.0426201 (4.81163)
Outpt time (%) = 0.000489473 (0.0552595)
Other time (%) = 0.353777 (39.9399)

Nlocal:    3823.5 ave 3851 max 3780 min
Histogram: 1 0 0 0 1 0 0 0 0 2
Nghost:    772 ave 786 max 766 min
Histogram: 2 1 0 0 0 0 0 0 0 1
Neighs:    27108.5 ave 27404 max 26830 min
Histogram: 1 0 0 0 2 0 0 0 0 1

Total # of neighbors = 108434
Ave neighs/atom = 7.08997
Neighbor list builds = 33
Dangerous builds = 0
run 100    
Setting up run at Tue Aug  4 20:50:39 2020

Memory usage per processor = 24.2078 Mbytes
    Step    Atoms         KinEng            rke         Volume       centerOf       dragtota       dragtota       dragtota 
  351801    15294  0.00015151525  1.6015119e-05         0.0051   0.0031316765  9.6844016e-05   0.0002088259   0.0047647423 
CFD Coupling established at step 351900
  351900    15294  0.00011899655  1.5720525e-05         0.0051   0.0031319021  9.6844016e-05   0.0002088259   0.0047647423 
  351901    15294  0.00011897907  1.5720523e-05         0.0051   0.0031319025  9.6844016e-05   0.0002088259   0.0047647423 
Loop time of 0.772911 on 4 procs for 100 steps with 15294 atoms, finish time Tue Aug  4 20:50:39 2020


Pair  time (%) = 0.215889 (27.932)
Neigh time (%) = 0.218536 (28.2745)
Comm  time (%) = 0.0333276 (4.31196)
Outpt time (%) = 0.000466287 (0.0603287)
Other time (%) = 0.304691 (39.4213)

Nlocal:    3823.5 ave 3851 max 3780 min
Histogram: 1 0 0 0 1 0 0 0 0 2
Nghost:    771.75 ave 785 max 766 min
Histogram: 2 1 0 0 0 0 0 0 0 1
Neighs:    27106.2 ave 27402 max 26830 min
Histogram: 1 0 0 0 2 0 0 0 0 1

Total # of neighbors = 108425
Ave neighs/atom = 7.08938
Neighbor list builds = 27
Dangerous builds = 0
run 100    
Setting up run at Tue Aug  4 20:50:40 2020

Memory usage per processor = 24.2078 Mbytes
    Step    Atoms         KinEng            rke         Volume       centerOf       dragtota       dragtota       dragtota 
  351901    15294  0.00011897907  1.5720523e-05         0.0051   0.0031319025  0.00021089979  1.4893136e-05   0.0047751751 
CFD Coupling established at step 352000
  352000    15294  0.00011658957   1.475717e-05         0.0051   0.0031318361  0.00021089979  1.4893136e-05   0.0047751751 
INFO: Particle insertion ins2: inserted 8 particle templates (mass 9.852035e-06) at step 352001
 - a total of 24 particle templates (mass 2.955610e-05) inserted so far.
  352001    15302  0.00022537045  1.4757185e-05         0.0051   0.0031539855  0.00021089979  1.4893136e-05   0.0047751751 
Loop time of 0.832613 on 4 procs for 100 steps with 15302 atoms, finish time Tue Aug  4 20:50:40 2020


Pair  time (%) = 0.217797 (26.1583)
Neigh time (%) = 0.200302 (24.0571)
Comm  time (%) = 0.0311978 (3.74698)
Outpt time (%) = 0.0914118 (10.9789)
Other time (%) = 0.291904 (35.0588)

Nlocal:    3825.5 ave 3853 max 3786 min
Histogram: 1 0 0 1 0 0 0 0 0 2
Nghost:    772.5 ave 785 max 767 min
Histogram: 1 2 0 0 0 0 0 0 0 1
Neighs:    27108 ave 27402 max 26834 min
Histogram: 1 0 0 0 2 0 0 0 0 1

Total # of neighbors = 108432
Ave neighs/atom = 7.08613
Neighbor list builds = 25
Dangerous builds = 0
run 100    
Setting up run at Tue Aug  4 20:50:40 2020

Memory usage per processor = 24.2079 Mbytes
    Step    Atoms         KinEng            rke         Volume       centerOf       dragtota       dragtota       dragtota 
  352001    15302  0.00022537045  1.4757185e-05         0.0051    0.003152434  0.00021417493  4.9254834e-05   0.0047624386 
CFD Coupling established at step 352100
  352100    15302  0.00062554725   6.791435e-05         0.0051    0.003152268  0.00021417493  4.9254834e-05   0.0047624386 
  352101    15302  0.00062552692  6.7913278e-05         0.0051   0.0031522676  0.00021417493  4.9254834e-05   0.0047624386 
Loop time of 1.55095 on 4 procs for 100 steps with 15302 atoms, finish time Tue Aug  4 20:50:42 2020


Pair  time (%) = 0.238193 (15.3579)
Neigh time (%) = 0.600059 (38.6899)
Comm  time (%) = 0.0798362 (5.14758)
Outpt time (%) = 0.000435114 (0.0280547)
Other time (%) = 0.632422 (40.7765)

Nlocal:    3825.5 ave 3853 max 3786 min
Histogram: 1 0 0 1 0 0 0 0 0 2
Nghost:    772.5 ave 785 max 767 min
Histogram: 1 2 0 0 0 0 0 0 0 1
Neighs:    27109 ave 27404 max 26832 min
Histogram: 1 0 0 0 2 0 0 0 0 1

Total # of neighbors = 108436
Ave neighs/atom = 7.08639
Neighbor list builds = 75
Dangerous builds = 51
run 100    
Setting up run at Tue Aug  4 20:50:42 2020

Memory usage per processor = 24.2079 Mbytes
    Step    Atoms         KinEng            rke         Volume       centerOf       dragtota       dragtota       dragtota 
  352101    15302  0.00062552692  6.7913278e-05         0.0051   0.0031522676   0.0016997094  2.3629875e-05   0.0048977053 
CFD Coupling established at step 352200
  352200    15302  0.00055184067   6.919568e-05         0.0051   0.0031522933   0.0016997094  2.3629875e-05   0.0048977053 
  352201    15302  0.00055256782  6.9208687e-05         0.0051   0.0031522936   0.0016997094  2.3629875e-05   0.0048977053 
Loop time of 1.15892 on 4 procs for 100 steps with 15302 atoms, finish time Tue Aug  4 20:50:43 2020


Pair  time (%) = 0.229177 (19.775)
Neigh time (%) = 0.407016 (35.1202)
Comm  time (%) = 0.0564808 (4.87355)
Outpt time (%) = 0.000543714 (0.0469154)
Other time (%) = 0.465707 (40.1844)

Nlocal:    3825.5 ave 3852 max 3786 min
Histogram: 1 0 0 1 0 0 0 0 0 2
Nghost:    773 ave 786 max 767 min
Histogram: 2 0 1 0 0 0 0 0 0 1
Neighs:    27108.2 ave 27403 max 26834 min
Histogram: 1 0 0 0 2 0 0 0 0 1

Total # of neighbors = 108433
Ave neighs/atom = 7.0862
Neighbor list builds = 50
Dangerous builds = 0
run 100    
Setting up run at Tue Aug  4 20:50:43 2020

Memory usage per processor = 24.2079 Mbytes
    Step    Atoms         KinEng            rke         Volume       centerOf       dragtota       dragtota       dragtota 
  352201    15302  0.00055256782  6.9208687e-05         0.0051   0.0031522936    0.001709751   2.529503e-05   0.0048869027 
CFD Coupling established at step 352300
  352300    15302  0.00028501042  5.4713602e-05         0.0051   0.0031521476    0.001709751   2.529503e-05   0.0048869027 
  352301    15302  0.00028504198  5.4632793e-05         0.0051   0.0031521446    0.001709751   2.529503e-05   0.0048869027 
Loop time of 1.05812 on 4 procs for 100 steps with 15302 atoms, finish time Tue Aug  4 20:50:44 2020


Pair  time (%) = 0.2242 (21.1886)
Neigh time (%) = 0.360647 (34.0838)
Comm  time (%) = 0.0493595 (4.66484)
Outpt time (%) = 0.000453115 (0.0428227)
Other time (%) = 0.423458 (40.0199)

Nlocal:    3825.5 ave 3853 max 3786 min
Histogram: 1 0 0 1 0 0 0 0 0 2
Nghost:    773.75 ave 788 max 766 min
Histogram: 1 1 1 0 0 0 0 0 0 1
Neighs:    27106.8 ave 27400 max 26833 min
Histogram: 1 0 0 0 2 0 0 0 0 1

Total # of neighbors = 108427
Ave neighs/atom = 7.08581
Neighbor list builds = 45
Dangerous builds = 0
run 100    
Setting up run at Tue Aug  4 20:50:45 2020

Memory usage per processor = 24.2079 Mbytes
    Step    Atoms         KinEng            rke         Volume       centerOf       dragtota       dragtota       dragtota 
  352301    15302  0.00028504198  5.4632793e-05         0.0051   0.0031521446  0.00044690554 -0.00017940881   0.0048543315 
CFD Coupling established at step 352400
  352400    15302  0.00026818342  5.4347462e-05         0.0051   0.0031518056  0.00044690554 -0.00017940881   0.0048543315 
  352401    15302  0.00026809857  5.4347462e-05         0.0051    0.003151802  0.00044690554 -0.00017940881   0.0048543315 
Loop time of 0.859743 on 4 procs for 100 steps with 15302 atoms, finish time Tue Aug  4 20:50:45 2020


Pair  time (%) = 0.218377 (25.4003)
Neigh time (%) = 0.261513 (30.4177)
Comm  time (%) = 0.0362605 (4.2176)
Outpt time (%) = 0.000506699 (0.0589361)
Other time (%) = 0.343085 (39.9056)

Nlocal:    3825.5 ave 3853 max 3786 min
Histogram: 1 0 0 0 1 0 0 0 0 2
Nghost:    773 ave 786 max 767 min
Histogram: 1 2 0 0 0 0 0 0 0 1
Neighs:    27108.8 ave 27403 max 26835 min
Histogram: 1 0 0 0 2 0 0 0 0 1

Total # of neighbors = 108435
Ave neighs/atom = 7.08633
Neighbor list builds = 33
Dangerous builds = 0
run 100    
Setting up run at Tue Aug  4 20:50:45 2020

Memory usage per processor = 24.2079 Mbytes
    Step    Atoms         KinEng            rke         Volume       centerOf       dragtota       dragtota       dragtota 
  352401    15302  0.00026809857  5.4347462e-05         0.0051    0.003151802  0.00034033507 -0.00022503178   0.0048645943 
CFD Coupling established at step 352500
  352500    15302  0.00025915203  5.2681627e-05         0.0051   0.0031515021  0.00034033507 -0.00022503178   0.0048645943 
  352501    15302  0.00025906907   5.268166e-05         0.0051   0.0031514995  0.00034033507 -0.00022503178   0.0048645943 
Loop time of 0.867879 on 4 procs for 100 steps with 15302 atoms, finish time Tue Aug  4 20:50:46 2020


Pair  time (%) = 0.221327 (25.5021)
Neigh time (%) = 0.264095 (30.43)
Comm  time (%) = 0.0371483 (4.28035)
Outpt time (%) = 0.000418246 (0.0481917)
Other time (%) = 0.34489 (39.7394)

Nlocal:    3825.5 ave 3851 max 3788 min
Histogram: 1 0 0 0 1 0 0 0 0 2
Nghost:    772.75 ave 784 max 769 min
Histogram: 3 0 0 0 0 0 0 0 0 1
Neighs:    27109.2 ave 27398 max 26835 min
Histogram: 1 0 0 0 2 0 0 0 0 1

Total # of neighbors = 108437
Ave neighs/atom = 7.08646
Neighbor list builds = 33
Dangerous builds = 0
run 100    
Setting up run at Tue Aug  4 20:50:46 2020

Memory usage per processor = 24.2079 Mbytes
    Step    Atoms         KinEng            rke         Volume       centerOf       dragtota       dragtota       dragtota 
  352501    15302  0.00025906907   5.268166e-05         0.0051   0.0031514995  0.00019115925 -0.00027053324   0.0049019584 
CFD Coupling established at step 352600
  352600    15302  0.00024188369  5.0958157e-05         0.0051   0.0031512658  0.00019115925 -0.00027053324   0.0049019584 
  352601    15302  0.00024181017  5.0958157e-05         0.0051   0.0031512629  0.00019115925 -0.00027053324   0.0049019584 
Loop time of 0.862457 on 4 procs for 100 steps with 15302 atoms, finish time Tue Aug  4 20:50:47 2020


Pair  time (%) = 0.218499 (25.3345)
Neigh time (%) = 0.264897 (30.7142)
Comm  time (%) = 0.0370449 (4.29528)
Outpt time (%) = 0.000442386 (0.0512936)
Other time (%) = 0.341573 (39.6047)

Nlocal:    3825.5 ave 3853 max 3788 min
Histogram: 1 0 0 1 0 0 0 0 0 2
Nghost:    772.5 ave 784 max 768 min
Histogram: 3 0 0 0 0 0 0 0 0 1
Neighs:    27107.8 ave 27401 max 26835 min
Histogram: 1 0 0 0 2 0 0 0 0 1

Total # of neighbors = 108431
Ave neighs/atom = 7.08607
Neighbor list builds = 33
Dangerous builds = 0
run 100    
Setting up run at Tue Aug  4 20:50:47 2020

Memory usage per processor = 24.2079 Mbytes
    Step    Atoms         KinEng            rke         Volume       centerOf       dragtota       dragtota       dragtota 
  352601    15302  0.00024181017  5.0958157e-05         0.0051   0.0031512629  0.00010341953 -0.00025794756   0.0049076131 
CFD Coupling established at step 352700
  352700    15302   0.0001467269  4.7699722e-05         0.0051   0.0031509155  0.00010341953 -0.00025794756   0.0049076131 
  352701    15302  0.00014656691  4.7902541e-05         0.0051   0.0031509119  0.00010341953 -0.00025794756   0.0049076131 
Loop time of 0.867525 on 4 procs for 100 steps with 15302 atoms, finish time Tue Aug  4 20:50:48 2020


Pair  time (%) = 0.219971 (25.3562)
Neigh time (%) = 0.265376 (30.59)
Comm  time (%) = 0.0370885 (4.2752)
Outpt time (%) = 0.000462055 (0.0532613)
Other time (%) = 0.344627 (39.7253)

Nlocal:    3825.5 ave 3853 max 3788 min
Histogram: 1 0 0 1 0 0 0 0 0 2
Nghost:    772.5 ave 784 max 768 min
Histogram: 3 0 0 0 0 0 0 0 0 1
Neighs:    27107.5 ave 27402 max 26835 min
Histogram: 1 0 0 0 2 0 0 0 0 1

Total # of neighbors = 108430
Ave neighs/atom = 7.086
Neighbor list builds = 33
Dangerous builds = 0
run 100    
Setting up run at Tue Aug  4 20:50:48 2020

Memory usage per processor = 24.2079 Mbytes
    Step    Atoms         KinEng            rke         Volume       centerOf       dragtota       dragtota       dragtota 
  352701    15302  0.00014656691  4.7902541e-05         0.0051   0.0031509119  2.7463853e-05 -8.3810267e-05    0.004819239 
CFD Coupling established at step 352800
  352800    15302  0.00013776686  4.4269025e-05         0.0051    0.003150532  2.7463853e-05 -8.3810267e-05    0.004819239 
  352801    15302  0.00013787015  4.4135613e-05         0.0051   0.0031505296  2.7463853e-05 -8.3810267e-05    0.004819239 
Loop time of 0.871616 on 4 procs for 100 steps with 15302 atoms, finish time Tue Aug  4 20:50:49 2020


Pair  time (%) = 0.21938 (25.1694)
Neigh time (%) = 0.267999 (30.7474)
Comm  time (%) = 0.0397003 (4.55479)
Outpt time (%) = 0.000461638 (0.0529634)
Other time (%) = 0.344075 (39.4755)

Nlocal:    3825.5 ave 3853 max 3787 min
Histogram: 1 0 0 1 0 0 0 0 0 2
Nghost:    772.25 ave 785 max 767 min
Histogram: 2 1 0 0 0 0 0 0 0 1
Neighs:    27108.8 ave 27396 max 26836 min
Histogram: 1 0 0 0 2 0 0 0 0 1

Total # of neighbors = 108435
Ave neighs/atom = 7.08633
Neighbor list builds = 33
Dangerous builds = 0
run 100    
Setting up run at Tue Aug  4 20:50:49 2020

Memory usage per processor = 24.2079 Mbytes
    Step    Atoms         KinEng            rke         Volume       centerOf       dragtota       dragtota       dragtota 
  352801    15302  0.00013787015  4.4135613e-05         0.0051   0.0031505296 -4.2351976e-05 -2.0063053e-05   0.0048450303 
CFD Coupling established at step 352900
  352900    15302  0.00013187502  4.2740113e-05         0.0051   0.0031503436 -4.2351976e-05 -2.0063053e-05   0.0048450303 
  352901    15302  0.00013178151  4.2847268e-05         0.0051   0.0031503419 -4.2351976e-05 -2.0063053e-05   0.0048450303 
Loop time of 0.873318 on 4 procs for 100 steps with 15302 atoms, finish time Tue Aug  4 20:50:50 2020


Pair  time (%) = 0.221097 (25.3169)
Neigh time (%) = 0.265035 (30.348)
Comm  time (%) = 0.0384121 (4.39841)
Outpt time (%) = 0.000424385 (0.0485946)
Other time (%) = 0.34835 (39.8881)

Nlocal:    3825.5 ave 3853 max 3786 min
Histogram: 1 0 0 1 0 0 0 0 0 2
Nghost:    772.25 ave 786 max 767 min
Histogram: 3 0 0 0 0 0 0 0 0 1
Neighs:    27108.8 ave 27396 max 26838 min
Histogram: 1 0 0 0 2 0 0 0 0 1

Total # of neighbors = 108435
Ave neighs/atom = 7.08633
Neighbor list builds = 33
Dangerous builds = 0
run 100    
Setting up run at Tue Aug  4 20:50:50 2020

Memory usage per processor = 24.2079 Mbytes
    Step    Atoms         KinEng            rke         Volume       centerOf       dragtota       dragtota       dragtota 
  352901    15302  0.00013178151  4.2847268e-05         0.0051   0.0031503419  2.4547846e-05  8.7958693e-05   0.0048362011 
CFD Coupling established at step 353000
  353000    15302   0.0001287189  4.1249707e-05         0.0051   0.0031502072  2.4547846e-05  8.7958693e-05   0.0048362011 
INFO: Particle insertion ins2: inserted 9 particle templates (mass 1.108354e-05) at step 353001
 - a total of 33 particle templates (mass 4.063964e-05) inserted so far.
  353001    15311  0.00062046306  4.1247283e-05         0.0051   0.0031761717  2.4547846e-05  8.7958693e-05   0.0048362011 
Loop time of 0.991399 on 4 procs for 100 steps with 15311 atoms, finish time Tue Aug  4 20:50:51 2020


Pair  time (%) = 0.225171 (22.7124)
Neigh time (%) = 0.276346 (27.8743)
Comm  time (%) = 0.039304 (3.9645)
Outpt time (%) = 0.0931315 (9.39395)
Other time (%) = 0.357447 (36.0548)

Nlocal:    3827.75 ave 3857 max 3790 min
Histogram: 1 0 0 1 0 0 0 0 0 2
Nghost:    772.5 ave 787 max 767 min
Histogram: 2 1 0 0 0 0 0 0 0 1
Neighs:    27108.5 ave 27400 max 26838 min
Histogram: 1 0 0 0 2 0 0 0 0 1

Total # of neighbors = 108434
Ave neighs/atom = 7.0821
Neighbor list builds = 34
Dangerous builds = 0
run 100    
Setting up run at Tue Aug  4 20:50:51 2020

Memory usage per processor = 24.2082 Mbytes
    Step    Atoms         KinEng            rke         Volume       centerOf       dragtota       dragtota       dragtota 
  353001    15311  0.00062046306  4.1247283e-05         0.0051   0.0031744151  0.00034818932  0.00013529385   0.0048213025 
CFD Coupling established at step 353100
  353100    15311  0.00074626797  5.5909366e-05         0.0051   0.0031736704  0.00034818932  0.00013529385   0.0048213025 
  353101    15311  0.00074616643  5.5912231e-05         0.0051   0.0031736627  0.00034818932  0.00013529385   0.0048213025 
Loop time of 1.9285 on 4 procs for 100 steps with 15311 atoms, finish time Tue Aug  4 20:50:53 2020


Pair  time (%) = 0.24117 (12.5056)
Neigh time (%) = 0.80225 (41.5997)
Comm  time (%) = 0.0995559 (5.16234)
Outpt time (%) = 0.000377417 (0.0195705)
Other time (%) = 0.785148 (40.7129)

Nlocal:    3827.75 ave 3857 max 3792 min
Histogram: 1 0 1 0 0 0 0 0 0 2
Nghost:    773.5 ave 788 max 768 min
Histogram: 2 1 0 0 0 0 0 0 0 1
Neighs:    27109.2 ave 27401 max 26838 min
Histogram: 1 0 0 0 2 0 0 0 0 1

Total # of neighbors = 108437
Ave neighs/atom = 7.08229
Neighbor list builds = 100
Dangerous builds = 100
run 100    
Setting up run at Tue Aug  4 20:50:53 2020

Memory usage per processor = 24.2082 Mbytes
    Step    Atoms         KinEng            rke         Volume       centerOf       dragtota       dragtota       dragtota 
  353101    15311  0.00074616643  5.5912231e-05         0.0051   0.0031736627   0.0018672564 -0.00015441289   0.0052101119 
CFD Coupling established at step 353200
  353200    15311  0.00070067366  5.5131505e-05         0.0051   0.0031729455   0.0018672564 -0.00015441289   0.0052101119 
  353201    15311  0.00070022246  5.5129276e-05         0.0051   0.0031729389   0.0018672564 -0.00015441289   0.0052101119 
Loop time of 1.46303 on 4 procs for 100 steps with 15311 atoms, finish time Tue Aug  4 20:50:55 2020


Pair  time (%) = 0.231701 (15.8371)
Neigh time (%) = 0.565293 (38.6385)
Comm  time (%) = 0.0698619 (4.77515)
Outpt time (%) = 0.000414073 (0.0283024)
Other time (%) = 0.595761 (40.721)

Nlocal:    3827.75 ave 3856 max 3792 min
Histogram: 1 0 1 0 0 0 0 0 0 2
Nghost:    772.5 ave 787 max 767 min
Histogram: 3 0 0 0 0 0 0 0 0 1
Neighs:    27109.2 ave 27396 max 26837 min
Histogram: 1 0 0 0 2 0 0 0 0 1

Total # of neighbors = 108437
Ave neighs/atom = 7.08229
Neighbor list builds = 71
Dangerous builds = 43
run 100    
Setting up run at Tue Aug  4 20:50:55 2020

Memory usage per processor = 24.2082 Mbytes
    Step    Atoms         KinEng            rke         Volume       centerOf       dragtota       dragtota       dragtota 
  353201    15311  0.00070022246  5.5129276e-05         0.0051   0.0031729389   0.0018197949 -0.00010345262   0.0051696946 
CFD Coupling established at step 353300
  353300    15311  0.00033644997  5.4190564e-05         0.0051   0.0031724442   0.0018197949 -0.00010345262   0.0051696946 
  353301    15311  0.00033653883  5.4044345e-05         0.0051   0.0031724406   0.0018197949 -0.00010345262   0.0051696946 
Loop time of 1.14077 on 4 procs for 100 steps with 15311 atoms, finish time Tue Aug  4 20:50:56 2020


Pair  time (%) = 0.227502 (19.9427)
Neigh time (%) = 0.399563 (35.0256)
Comm  time (%) = 0.0547277 (4.79742)
Outpt time (%) = 0.000554144 (0.0485762)
Other time (%) = 0.458428 (40.1857)

Nlocal:    3827.75 ave 3855 max 3792 min
Histogram: 1 0 1 0 0 0 0 0 0 2
Nghost:    772.75 ave 786 max 766 min
Histogram: 1 1 1 0 0 0 0 0 0 1
Neighs:    27110 ave 27404 max 26837 min
Histogram: 1 0 0 0 2 0 0 0 0 1

Total # of neighbors = 108440
Ave neighs/atom = 7.08249
Neighbor list builds = 50
Dangerous builds = 0
run 100    
Setting up run at Tue Aug  4 20:50:56 2020

Memory usage per processor = 24.2082 Mbytes
    Step    Atoms         KinEng            rke         Volume       centerOf       dragtota       dragtota       dragtota 
  353301    15311  0.00033653883  5.4044345e-05         0.0051   0.0031724406   0.0005180558  -9.722413e-05   0.0050754555 
CFD Coupling established at step 353400
  353400    15311   0.0003237869  5.1911765e-05         0.0051    0.003172109   0.0005180558  -9.722413e-05   0.0050754555 
  353401    15311  0.00032364979  5.1941972e-05         0.0051   0.0031721057   0.0005180558  -9.722413e-05   0.0050754555 
Loop time of 1.15343 on 4 procs for 100 steps with 15311 atoms, finish time Tue Aug  4 20:50:57 2020


Pair  time (%) = 0.229781 (19.9216)
Neigh time (%) = 0.400974 (34.7638)
Comm  time (%) = 0.0563742 (4.88755)
Outpt time (%) = 0.000480056 (0.04162)
Other time (%) = 0.465816 (40.3854)

Nlocal:    3827.75 ave 3855 max 3792 min
Histogram: 1 0 0 1 0 0 0 0 0 2
Nghost:    772.75 ave 786 max 767 min
Histogram: 2 1 0 0 0 0 0 0 0 1
Neighs:    27108.8 ave 27402 max 26835 min
Histogram: 1 0 0 0 2 0 0 0 0 1

Total # of neighbors = 108435
Ave neighs/atom = 7.08216
Neighbor list builds = 50
Dangerous builds = 0
run 100    
Setting up run at Tue Aug  4 20:50:58 2020

Memory usage per processor = 24.2082 Mbytes
    Step    Atoms         KinEng            rke         Volume       centerOf       dragtota       dragtota       dragtota 
  353401    15311  0.00032364979  5.1941972e-05         0.0051   0.0031721057  0.00053047636 -9.4805051e-05   0.0050391922 
CFD Coupling established at step 353500
  353500    15311  0.00022569953  5.7941355e-05         0.0051   0.0031717745  0.00053047636 -9.4805051e-05   0.0050391922 
  353501    15311  0.00022541578  5.7863344e-05         0.0051   0.0031717744  0.00053047636 -9.4805051e-05   0.0050391922 
Loop time of 1.02042 on 4 procs for 100 steps with 15311 atoms, finish time Tue Aug  4 20:50:59 2020


Pair  time (%) = 0.225831 (22.1312)
Neigh time (%) = 0.339708 (33.291)
Comm  time (%) = 0.0457237 (4.48088)
Outpt time (%) = 0.000426412 (0.0417879)
Other time (%) = 0.40873 (40.0551)

Nlocal:    3827.75 ave 3855 max 3790 min
Histogram: 1 0 0 1 0 0 0 0 0 2
Nghost:    772.25 ave 783 max 767 min
Histogram: 1 2 0 0 0 0 0 0 0 1
Neighs:    27105.5 ave 27394 max 26831 min
Histogram: 1 0 0 0 2 0 0 0 0 1

Total # of neighbors = 108422
Ave neighs/atom = 7.08131
Neighbor list builds = 42
Dangerous builds = 0
run 100    
Setting up run at Tue Aug  4 20:50:59 2020

Memory usage per processor = 24.2082 Mbytes
    Step    Atoms         KinEng            rke         Volume       centerOf       dragtota       dragtota       dragtota 
  353501    15311  0.00022541578  5.7863344e-05         0.0051   0.0031717744  0.00037304189  1.7051981e-06   0.0046582247 
CFD Coupling established at step 353600
  353600    15311  0.00016484094  5.7440168e-05         0.0051    0.003173759  0.00037304189  1.7051981e-06   0.0046582247 
  353601    15311  0.00016480068  5.7435116e-05         0.0051   0.0031737848  0.00037304189  1.7051981e-06   0.0046582247 
Loop time of 0.867057 on 4 procs for 100 steps with 15311 atoms, finish time Tue Aug  4 20:51:00 2020


Pair  time (%) = 0.224056 (25.841)
Neigh time (%) = 0.258737 (29.8409)
Comm  time (%) = 0.03678 (4.24194)
Outpt time (%) = 0.000510335 (0.0588583)
Other time (%) = 0.346973 (40.0174)

Nlocal:    3827.75 ave 3854 max 3791 min
Histogram: 1 0 0 1 0 0 0 0 0 2
Nghost:    771.75 ave 782 max 766 min
Histogram: 1 1 1 0 0 0 0 0 0 1
Neighs:    27092.5 ave 27350 max 26822 min
Histogram: 1 0 0 0 0 2 0 0 0 1

Total # of neighbors = 108370
Ave neighs/atom = 7.07792
Neighbor list builds = 32
Dangerous builds = 0
run 100    
Setting up run at Tue Aug  4 20:51:00 2020

Memory usage per processor = 24.2082 Mbytes
    Step    Atoms         KinEng            rke         Volume       centerOf       dragtota       dragtota       dragtota 
  353601    15311  0.00016480068  5.7435116e-05         0.0051   0.0031737848  0.00015637854  0.00018568177   0.0046471106 
CFD Coupling established at step 353700
  353700    15311  0.00016078319  5.7176009e-05         0.0051   0.0031764174  0.00015637854  0.00018568177   0.0046471106 
  353701    15311   0.0001607428  5.7193308e-05         0.0051   0.0031764435  0.00015637854  0.00018568177   0.0046471106 
Loop time of 0.74667 on 4 procs for 100 steps with 15311 atoms, finish time Tue Aug  4 20:51:00 2020


Pair  time (%) = 0.216093 (28.9408)
Neigh time (%) = 0.202598 (27.1335)
Comm  time (%) = 0.0300509 (4.02466)
Outpt time (%) = 0.000534773 (0.071621)
Other time (%) = 0.297394 (39.8293)

Nlocal:    3827.75 ave 3854 max 3790 min
Histogram: 1 0 0 1 0 0 0 0 0 2
Nghost:    771.5 ave 782 max 765 min
Histogram: 1 0 2 0 0 0 0 0 0 1
Neighs:    27077 ave 27300 max 26810 min
Histogram: 1 0 0 0 0 1 1 0 0 1

Total # of neighbors = 108308
Ave neighs/atom = 7.07387
Neighbor list builds = 25
Dangerous builds = 0
run 100    
Setting up run at Tue Aug  4 20:51:00 2020

Memory usage per processor = 24.2082 Mbytes
    Step    Atoms         KinEng            rke         Volume       centerOf       dragtota       dragtota       dragtota 
  353701    15311   0.0001607428  5.7193308e-05         0.0051   0.0031764435  0.00016507857   0.0002018005   0.0046903737 
CFD Coupling established at step 353800
  353800    15311  0.00013090507  5.8946379e-05         0.0051   0.0031787353  0.00016507857   0.0002018005   0.0046903737 
  353801    15311  0.00013085504  5.8959708e-05         0.0051   0.0031787558  0.00016507857   0.0002018005   0.0046903737 
Loop time of 0.664106 on 4 procs for 100 steps with 15311 atoms, finish time Tue Aug  4 20:51:01 2020


Pair  time (%) = 0.210948 (31.7641)
Neigh time (%) = 0.161571 (24.3291)
Comm  time (%) = 0.0257214 (3.87308)
Outpt time (%) = 0.000662744 (0.0997949)
Other time (%) = 0.265203 (39.9339)

Nlocal:    3827.75 ave 3855 max 3790 min
Histogram: 1 0 0 1 0 0 0 0 0 2
Nghost:    771.25 ave 782 max 764 min
Histogram: 1 0 1 1 0 0 0 0 0 1
Neighs:    27061.5 ave 27267 max 26781 min
Histogram: 1 0 0 0 0 0 2 0 0 1

Total # of neighbors = 108246
Ave neighs/atom = 7.06982
Neighbor list builds = 20
Dangerous builds = 0
run 100    
Setting up run at Tue Aug  4 20:51:01 2020

Memory usage per processor = 24.2082 Mbytes
    Step    Atoms         KinEng            rke         Volume       centerOf       dragtota       dragtota       dragtota 
  353801    15311  0.00013085504  5.8959708e-05         0.0051   0.0031787558  0.00017248179  4.5761773e-05   0.0047331848 
CFD Coupling established at step 353900
  353900    15311  0.00011575145  5.4078873e-05         0.0051   0.0031805318  0.00017248179  4.5761773e-05   0.0047331848 
  353901    15311  0.00011578623  5.4041598e-05         0.0051   0.0031805477  0.00017248179  4.5761773e-05   0.0047331848 
Loop time of 0.677765 on 4 procs for 100 steps with 15311 atoms, finish time Tue Aug  4 20:51:02 2020


Pair  time (%) = 0.212514 (31.3551)
Neigh time (%) = 0.162503 (23.9762)
Comm  time (%) = 0.0301727 (4.45179)
Outpt time (%) = 0.000720978 (0.106376)
Other time (%) = 0.271855 (40.1105)

Nlocal:    3827.75 ave 3855 max 3789 min
Histogram: 1 0 0 1 0 0 0 0 0 2
Nghost:    772 ave 784 max 766 min
Histogram: 1 1 1 0 0 0 0 0 0 1
Neighs:    27046 ave 27220 max 26764 min
Histogram: 1 0 0 0 0 0 0 2 0 1

Total # of neighbors = 108184
Ave neighs/atom = 7.06577
Neighbor list builds = 20
Dangerous builds = 0
run 100    
Setting up run at Tue Aug  4 20:51:02 2020

Memory usage per processor = 24.2082 Mbytes
    Step    Atoms         KinEng            rke         Volume       centerOf       dragtota       dragtota       dragtota 
  353901    15311  0.00011578623  5.4041598e-05         0.0051   0.0031805477  0.00014829556  0.00020698581   0.0046606332 
CFD Coupling established at step 354000
  354000    15311  0.00010318253  4.7428314e-05         0.0051   0.0031819514  0.00014829556  0.00020698581   0.0046606332 
INFO: Particle insertion ins2: inserted 8 particle templates (mass 9.852035e-06) at step 354001
 - a total of 41 particle templates (mass 5.049168e-05) inserted so far.
  354001    15319  0.00013701131  4.7428014e-05         0.0051    0.003207127  0.00014829556  0.00020698581   0.0046606332 
Loop time of 0.76565 on 4 procs for 100 steps with 15319 atoms, finish time Tue Aug  4 20:51:03 2020


Pair  time (%) = 0.209933 (27.4189)
Neigh time (%) = 0.160828 (21.0055)
Comm  time (%) = 0.0263339 (3.43941)
Outpt time (%) = 0.0954379 (12.465)
Other time (%) = 0.273117 (35.6712)

Nlocal:    3829.75 ave 3859 max 3793 min
Histogram: 1 0 0 1 0 0 0 0 0 2
Nghost:    771.75 ave 782 max 767 min
Histogram: 2 0 1 0 0 0 0 0 0 1
Neighs:    27034.8 ave 27174 max 26758 min
Histogram: 1 0 0 0 0 0 0 0 2 1

Total # of neighbors = 108139
Ave neighs/atom = 7.05914
Neighbor list builds = 20
Dangerous builds = 0
run 100    
Setting up run at Tue Aug  4 20:51:03 2020

Memory usage per processor = 24.2085 Mbytes
    Step    Atoms         KinEng            rke         Volume       centerOf       dragtota       dragtota       dragtota 
  354001    15319  0.00013701131  4.7428014e-05         0.0051   0.0032055511  0.00017871664  0.00012889278   0.0047391431 
CFD Coupling established at step 354100
  354100    15319   0.0002168882  5.0278948e-05         0.0051   0.0032061066  0.00017871664  0.00012889278   0.0047391431 
  354101    15319  0.00021688666  5.0079188e-05         0.0051   0.0032061111  0.00017871664  0.00012889278   0.0047391431 
Loop time of 1.16159 on 4 procs for 100 steps with 15319 atoms, finish time Tue Aug  4 20:51:04 2020


Pair  time (%) = 0.222167 (19.1262)
Neigh time (%) = 0.407412 (35.0737)
Comm  time (%) = 0.0560189 (4.82261)
Outpt time (%) = 0.000650942 (0.056039)
Other time (%) = 0.475338 (40.9214)

Nlocal:    3829.75 ave 3859 max 3792 min
Histogram: 1 0 0 1 0 0 0 0 0 2
Nghost:    771 ave 782 max 765 min
Histogram: 1 1 1 0 0 0 0 0 0 1
Neighs:    27022.2 ave 27160 max 26731 min
Histogram: 1 0 0 0 0 0 0 0 2 1

Total # of neighbors = 108089
Ave neighs/atom = 7.05588
Neighbor list builds = 50
Dangerous builds = 0
run 100    
Setting up run at Tue Aug  4 20:51:04 2020

Memory usage per processor = 24.2085 Mbytes
    Step    Atoms         KinEng            rke         Volume       centerOf       dragtota       dragtota       dragtota 
  354101    15319  0.00021688666  5.0079188e-05         0.0051   0.0032061111  0.00049565178  0.00016722663   0.0050011109 
CFD Coupling established at step 354200
  354200    15319   0.0002126685  4.5963157e-05         0.0051   0.0032065527  0.00049565178  0.00016722663   0.0050011109 
  354201    15319  0.00021260432  4.5963031e-05         0.0051   0.0032065569  0.00049565178  0.00016722663   0.0050011109 
Loop time of 1.19148 on 4 procs for 100 steps with 15319 atoms, finish time Tue Aug  4 20:51:05 2020


Pair  time (%) = 0.225448 (18.9217)
Neigh time (%) = 0.407166 (34.1732)
Comm  time (%) = 0.0695937 (5.84095)
Outpt time (%) = 0.000635862 (0.0533675)
Other time (%) = 0.488636 (41.0109)

Nlocal:    3829.75 ave 3860 max 3791 min
Histogram: 1 0 0 1 0 0 0 0 0 2
Nghost:    770.5 ave 783 max 762 min
Histogram: 1 0 1 1 0 0 0 0 0 1
Neighs:    27009.8 ave 27132 max 26711 min
Histogram: 1 0 0 0 0 0 0 0 0 3

Total # of neighbors = 108039
Ave neighs/atom = 7.05261
Neighbor list builds = 50
Dangerous builds = 0
run 100    
Setting up run at Tue Aug  4 20:51:05 2020

Memory usage per processor = 24.2085 Mbytes
    Step    Atoms         KinEng            rke         Volume       centerOf       dragtota       dragtota       dragtota 
  354201    15319  0.00021260432  4.5963031e-05         0.0051   0.0032065569  0.00046929137  0.00016118454   0.0050085432 
CFD Coupling established at step 354300
  354300    15319  0.00019686218  4.5103506e-05         0.0051   0.0032070016  0.00046929137  0.00016118454   0.0050085432 
  354301    15319  0.00019679958  4.5100227e-05         0.0051   0.0032070062  0.00046929137  0.00016118454   0.0050085432 
Loop time of 1.18626 on 4 procs for 100 steps with 15319 atoms, finish time Tue Aug  4 20:51:07 2020


Pair  time (%) = 0.227758 (19.1997)
Neigh time (%) = 0.405297 (34.166)
Comm  time (%) = 0.0672787 (5.67151)
Outpt time (%) = 0.000569284 (0.0479899)
Other time (%) = 0.485355 (40.9148)

Nlocal:    3829.75 ave 3860 max 3791 min
Histogram: 1 0 0 1 0 0 0 0 0 2
Nghost:    769.5 ave 782 max 759 min
Histogram: 1 0 0 1 1 0 0 0 0 1
Neighs:    27004 ave 27124 max 26691 min
Histogram: 1 0 0 0 0 0 0 0 0 3

Total # of neighbors = 108016
Ave neighs/atom = 7.05111
Neighbor list builds = 50
Dangerous builds = 0
run 100    
Setting up run at Tue Aug  4 20:51:07 2020

Memory usage per processor = 24.2085 Mbytes
    Step    Atoms         KinEng            rke         Volume       centerOf       dragtota       dragtota       dragtota 
  354301    15319  0.00019679958  4.5100227e-05         0.0051   0.0032070062   0.0003011218  0.00026937118   0.0048606982 
CFD Coupling established at step 354400
  354400    15319  0.00018671665  4.3876714e-05         0.0051   0.0032078489   0.0003011218  0.00026937118   0.0048606982 
  354401    15319  0.00018661156   4.392706e-05         0.0051   0.0032078594   0.0003011218  0.00026937118   0.0048606982 
Loop time of 1.13004 on 4 procs for 100 steps with 15319 atoms, finish time Tue Aug  4 20:51:08 2020


Pair  time (%) = 0.21891 (19.372)
Neigh time (%) = 0.398805 (35.2914)
Comm  time (%) = 0.0535164 (4.73581)
Outpt time (%) = 0.000941753 (0.0833383)
Other time (%) = 0.457863 (40.5175)

Nlocal:    3829.75 ave 3860 max 3790 min
Histogram: 1 0 0 1 0 0 0 0 0 2
Nghost:    771 ave 786 max 759 min
Histogram: 1 0 0 1 1 0 0 0 0 1
Neighs:    26994.2 ave 27114 max 26678 min
Histogram: 1 0 0 0 0 0 0 0 0 3

Total # of neighbors = 107977
Ave neighs/atom = 7.04857
Neighbor list builds = 50
Dangerous builds = 0
run 100    
Setting up run at Tue Aug  4 20:51:08 2020

Memory usage per processor = 24.2085 Mbytes
    Step    Atoms         KinEng            rke         Volume       centerOf       dragtota       dragtota       dragtota 
  354401    15319  0.00018661156   4.392706e-05         0.0051   0.0032078594  0.00031414703  0.00026534913   0.0048784563 
CFD Coupling established at step 354500
  354500    15319  0.00018031472  4.3726527e-05         0.0051   0.0032088155  0.00031414703  0.00026534913   0.0048784563 
  354501    15319  0.00018025442  4.3725924e-05         0.0051   0.0032088239  0.00031414703  0.00026534913   0.0048784563 
Loop time of 1.18111 on 4 procs for 100 steps with 15319 atoms, finish time Tue Aug  4 20:51:09 2020


Pair  time (%) = 0.225218 (19.0684)
Neigh time (%) = 0.406536 (34.4199)
Comm  time (%) = 0.0701249 (5.93722)
Outpt time (%) = 0.000597656 (0.0506013)
Other time (%) = 0.478631 (40.5239)

Nlocal:    3829.75 ave 3858 max 3793 min
Histogram: 1 0 0 1 0 0 0 0 0 2
Nghost:    771 ave 783 max 760 min
Histogram: 1 0 0 1 0 1 0 0 0 1
Neighs:    26988.2 ave 27116 max 26679 min
Histogram: 1 0 0 0 0 0 0 0 1 2

Total # of neighbors = 107953
Ave neighs/atom = 7.047
Neighbor list builds = 50
Dangerous builds = 0
run 100    
Setting up run at Tue Aug  4 20:51:09 2020

Memory usage per processor = 24.2085 Mbytes
    Step    Atoms         KinEng            rke         Volume       centerOf       dragtota       dragtota       dragtota 
  354501    15319  0.00018025442  4.3725924e-05         0.0051   0.0032088239  0.00067805486  0.00069784422    0.006052499 
CFD Coupling established at step 354600
  354600    15319  0.00010341156   5.100447e-05         0.0051   0.0032094829  0.00067805486  0.00069784422    0.006052499 
  354601    15319  0.00010333402   5.096801e-05         0.0051   0.0032094888  0.00067805486  0.00069784422    0.006052499 
Loop time of 0.837026 on 4 procs for 100 steps with 15319 atoms, finish time Tue Aug  4 20:51:10 2020


Pair  time (%) = 0.214804 (25.6627)
Neigh time (%) = 0.239812 (28.6505)
Comm  time (%) = 0.0459504 (5.48972)
Outpt time (%) = 0.000449002 (0.0536425)
Other time (%) = 0.336011 (40.1434)

Nlocal:    3829.75 ave 3857 max 3794 min
Histogram: 1 0 0 1 0 0 0 0 0 2
Nghost:    770.5 ave 782 max 761 min
Histogram: 1 0 0 1 1 0 0 0 0 1
Neighs:    26982.8 ave 27122 max 26677 min
Histogram: 1 0 0 0 0 0 0 0 1 2

Total # of neighbors = 107931
Ave neighs/atom = 7.04556
Neighbor list builds = 29
Dangerous builds = 0
run 100    
Setting up run at Tue Aug  4 20:51:10 2020

Memory usage per processor = 24.2085 Mbytes
    Step    Atoms         KinEng            rke         Volume       centerOf       dragtota       dragtota       dragtota 
  354601    15319  0.00010333402   5.096801e-05         0.0051   0.0032094888  0.00021869604 -9.1807633e-05   0.0045606277 
CFD Coupling established at step 354700
  354700    15319  8.6292406e-05  4.4153675e-05         0.0051   0.0032118261  0.00021869604 -9.1807633e-05   0.0045606277 
  354701    15319  8.6187663e-05  4.4184364e-05         0.0051   0.0032118557  0.00021869604 -9.1807633e-05   0.0045606277 
Loop time of 0.643564 on 4 procs for 100 steps with 15319 atoms, finish time Tue Aug  4 20:51:11 2020


Pair  time (%) = 0.208115 (32.3379)
Neigh time (%) = 0.147741 (22.9567)
Comm  time (%) = 0.0322153 (5.00576)
Outpt time (%) = 0.000426173 (0.0662207)
Other time (%) = 0.255067 (39.6335)

Nlocal:    3829.75 ave 3856 max 3795 min
Histogram: 1 0 0 1 0 0 0 0 0 2
Nghost:    769.5 ave 780 max 758 min
Histogram: 1 0 0 0 0 2 0 0 0 1
Neighs:    26972 ave 27099 max 26680 min
Histogram: 1 0 0 0 0 0 0 0 1 2

Total # of neighbors = 107888
Ave neighs/atom = 7.04276
Neighbor list builds = 18
Dangerous builds = 0
run 100    
Setting up run at Tue Aug  4 20:51:11 2020

Memory usage per processor = 24.2085 Mbytes
    Step    Atoms         KinEng            rke         Volume       centerOf       dragtota       dragtota       dragtota 
  354701    15319  8.6187663e-05  4.4184364e-05         0.0051   0.0032118557   0.0001863051  3.4037649e-05   0.0046741214 
CFD Coupling established at step 354800
  354800    15319  8.3563092e-05  4.4205156e-05         0.0051    0.003214728   0.0001863051  3.4037649e-05   0.0046741214 
  354801    15319  8.3547827e-05  4.4214961e-05         0.0051    0.003214755   0.0001863051  3.4037649e-05   0.0046741214 
Loop time of 0.729906 on 4 procs for 100 steps with 15319 atoms, finish time Tue Aug  4 20:51:12 2020


Pair  time (%) = 0.232801 (31.8946)
Neigh time (%) = 0.139392 (19.0972)
Comm  time (%) = 0.0518595 (7.10495)
Outpt time (%) = 0.000731468 (0.100214)
Other time (%) = 0.305123 (41.803)

Nlocal:    3829.75 ave 3854 max 3796 min
Histogram: 1 0 0 1 0 0 0 0 0 2
Nghost:    768.75 ave 775 max 757 min
Histogram: 1 0 0 0 0 0 0 1 1 1
Neighs:    26960.5 ave 27082 max 26673 min
Histogram: 1 0 0 0 0 0 0 0 1 2

Total # of neighbors = 107842
Ave neighs/atom = 7.03975
Neighbor list builds = 16
Dangerous builds = 0
run 100    
Setting up run at Tue Aug  4 20:51:12 2020

Memory usage per processor = 24.2085 Mbytes
    Step    Atoms         KinEng            rke         Volume       centerOf       dragtota       dragtota       dragtota 
  354801    15319  8.3547827e-05  4.4214961e-05         0.0051    0.003214755  0.00021455089  7.9256874e-05   0.0047011526 
CFD Coupling established at step 354900
  354900    15319  8.1200771e-05  4.3371788e-05         0.0051   0.0032171508  0.00021455089  7.9256874e-05   0.0047011526 
  354901    15319  8.1196766e-05  4.3360294e-05         0.0051    0.003217172  0.00021455089  7.9256874e-05   0.0047011526 
Loop time of 0.604962 on 4 procs for 100 steps with 15319 atoms, finish time Tue Aug  4 20:51:12 2020


Pair  time (%) = 0.20299 (33.5542)
Neigh time (%) = 0.130784 (21.6185)
Comm  time (%) = 0.0257564 (4.25753)
Outpt time (%) = 0.000579238 (0.0957479)
Other time (%) = 0.244852 (40.474)

Nlocal:    3829.75 ave 3854 max 3796 min
Histogram: 1 0 0 1 0 0 0 0 0 2
Nghost:    768.5 ave 776 max 757 min
Histogram: 1 0 0 0 0 0 1 1 0 1
Neighs:    26939 ave 27075 max 26666 min
Histogram: 1 0 0 0 0 0 0 1 0 2

Total # of neighbors = 107756
Ave neighs/atom = 7.03414
Neighbor list builds = 16
Dangerous builds = 0
run 100    
Setting up run at Tue Aug  4 20:51:12 2020

Memory usage per processor = 24.2085 Mbytes
    Step    Atoms         KinEng            rke         Volume       centerOf       dragtota       dragtota       dragtota 
  354901    15319  8.1196766e-05  4.3360294e-05         0.0051    0.003217172    5.34443e-05  1.9162887e-05   0.0046027297 
CFD Coupling established at step 355000
  355000    15319  7.9764199e-05  4.2345923e-05         0.0051   0.0032189344    5.34443e-05  1.9162887e-05   0.0046027297 
INFO: Particle insertion ins2: inserted 8 particle templates (mass 9.852035e-06) at step 355001
 - a total of 49 particle templates (mass 6.034371e-05) inserted so far.
  355001    15327  0.00016676379   4.236852e-05         0.0051   0.0032386839    5.34443e-05  1.9162887e-05   0.0046027297 
Loop time of 0.69503 on 4 procs for 100 steps with 15327 atoms, finish time Tue Aug  4 20:51:13 2020


Pair  time (%) = 0.198498 (28.5596)
Neigh time (%) = 0.134494 (19.3508)
Comm  time (%) = 0.0231931 (3.33699)
Outpt time (%) = 0.0933305 (13.4283)
Other time (%) = 0.245514 (35.3243)

Nlocal:    3831.75 ave 3859 max 3799 min
Histogram: 1 0 1 0 0 0 0 0 0 2
Nghost:    769.25 ave 778 max 756 min
Histogram: 1 0 0 0 0 0 1 1 0 1
Neighs:    26920.5 ave 27080 max 26662 min
Histogram: 1 0 0 0 0 1 0 0 1 1

Total # of neighbors = 107682
Ave neighs/atom = 7.02564
Neighbor list builds = 17
Dangerous builds = 0
write_restart ../DEM/post/restart/liggghts.restartCFDEM
run 100    
Setting up run at Tue Aug  4 20:51:13 2020

Memory usage per processor = 24.2085 Mbytes
    Step    Atoms         KinEng            rke         Volume       centerOf       dragtota       dragtota       dragtota 
  355001    15327  0.00016676379   4.236852e-05         0.0051   0.0032370932  4.2688129e-05  2.0376534e-05   0.0046010341 
CFD Coupling established at step 355100
  355100    15327  0.00014795711  6.1420904e-05         0.0051   0.0032387762  4.2688129e-05  2.0376534e-05   0.0046010341 
  355101    15327  0.00014795135  6.1342099e-05         0.0051   0.0032387909  4.2688129e-05  2.0376534e-05   0.0046010341 
Loop time of 0.888909 on 4 procs for 100 steps with 15327 atoms, finish time Tue Aug  4 20:51:14 2020


Pair  time (%) = 0.204386 (22.9928)
Neigh time (%) = 0.278363 (31.3151)
Comm  time (%) = 0.0413769 (4.6548)
Outpt time (%) = 0.000667751 (0.0751203)
Other time (%) = 0.364116 (40.9621)

Nlocal:    3831.75 ave 3859 max 3799 min
Histogram: 1 0 1 0 0 0 0 0 0 2
Nghost:    769.75 ave 779 max 756 min
Histogram: 1 0 0 0 0 0 1 1 0 1
Neighs:    26913 ave 27087 max 26668 min
Histogram: 1 0 0 0 1 0 0 0 1 1

Total # of neighbors = 107652
Ave neighs/atom = 7.02368
Neighbor list builds = 35
Dangerous builds = 0
write_restart ../DEM/post/restart/liggghts.restartCFDEM
run 100    
Setting up run at Tue Aug  4 20:51:14 2020

Memory usage per processor = 24.2085 Mbytes
    Step    Atoms         KinEng            rke         Volume       centerOf       dragtota       dragtota       dragtota 
  355101    15327  0.00014795135  6.1342099e-05         0.0051   0.0032387909  0.00010278289  0.00017517349   0.0044964662 
CFD Coupling established at step 355200
  355200    15327  0.00014392966  6.0550703e-05         0.0051   0.0032401176  0.00010278289  0.00017517349   0.0044964662 
  355201    15327  0.00014391081  6.0534366e-05         0.0051   0.0032401304  0.00010278289  0.00017517349   0.0044964662 
Loop time of 0.745522 on 4 procs for 100 steps with 15327 atoms, finish time Tue Aug  4 20:51:15 2020


Pair  time (%) = 0.202201 (27.122)
Neigh time (%) = 0.20906 (28.0421)
Comm  time (%) = 0.0328509 (4.40643)
Outpt time (%) = 0.000589788 (0.0791108)
Other time (%) = 0.30082 (40.3503)

Nlocal:    3831.75 ave 3862 max 3797 min
Histogram: 1 0 1 0 0 0 0 0 1 1
Nghost:    769.5 ave 777 max 759 min
Histogram: 1 0 0 0 0 0 2 0 0 1
Neighs:    26903.8 ave 27082 max 26664 min
Histogram: 1 0 0 0 1 0 0 0 1 1

Total # of neighbors = 107615
Ave neighs/atom = 7.02127
Neighbor list builds = 26
Dangerous builds = 0
write_restart ../DEM/post/restart/liggghts.restartCFDEM
run 100    
Setting up run at Tue Aug  4 20:51:15 2020

Memory usage per processor = 24.2085 Mbytes
    Step    Atoms         KinEng            rke         Volume       centerOf       dragtota       dragtota       dragtota 
  355201    15327  0.00014391081  6.0534366e-05         0.0051   0.0032401304 -1.3196602e-05  9.0744797e-05   0.0043052987 
CFD Coupling established at step 355300
  355300    15327  0.00010920997  5.0993712e-05         0.0051   0.0032413216 -1.3196602e-05  9.0744797e-05   0.0043052987 
  355301    15327  0.00010919714   5.100822e-05         0.0051   0.0032413296 -1.3196602e-05  9.0744797e-05   0.0043052987 
Loop time of 0.729609 on 4 procs for 100 steps with 15327 atoms, finish time Tue Aug  4 20:51:16 2020


Pair  time (%) = 0.20341 (27.8793)
Neigh time (%) = 0.203218 (27.853)
Comm  time (%) = 0.0287261 (3.93719)
Outpt time (%) = 0.000589728 (0.080828)
Other time (%) = 0.293665 (40.2496)

Nlocal:    3831.75 ave 3862 max 3797 min
Histogram: 1 0 1 0 0 0 0 0 1 1
Nghost:    769.5 ave 778 max 759 min
Histogram: 1 0 0 0 0 1 1 0 0 1
Neighs:    26899 ave 27086 max 26663 min
Histogram: 1 0 0 1 0 0 0 0 1 1

Total # of neighbors = 107596
Ave neighs/atom = 7.02003
Neighbor list builds = 25
Dangerous builds = 0
write_restart ../DEM/post/restart/liggghts.restartCFDEM
run 100    
Setting up run at Tue Aug  4 20:51:16 2020

Memory usage per processor = 24.2085 Mbytes
    Step    Atoms         KinEng            rke         Volume       centerOf       dragtota       dragtota       dragtota 
  355301    15327  0.00010919714   5.100822e-05         0.0051   0.0032413296 -1.7133648e-05 -2.8899546e-05   0.0044383655 
CFD Coupling established at step 355400
  355400    15327  8.9725952e-05  4.3986538e-05         0.0051   0.0032420413 -1.7133648e-05 -2.8899546e-05   0.0044383655 
  355401    15327  8.9689006e-05  4.4018001e-05         0.0051   0.0032420475 -1.7133648e-05 -2.8899546e-05   0.0044383655 
Loop time of 0.668719 on 4 procs for 100 steps with 15327 atoms, finish time Tue Aug  4 20:51:17 2020


Pair  time (%) = 0.202979 (30.3534)
Neigh time (%) = 0.168833 (25.2473)
Comm  time (%) = 0.0269763 (4.03403)
Outpt time (%) = 0.000592828 (0.0886512)
Other time (%) = 0.269338 (40.2766)

Nlocal:    3831.75 ave 3862 max 3798 min
Histogram: 1 0 1 0 0 0 0 0 1 1
Nghost:    769.5 ave 776 max 761 min
Histogram: 1 0 0 0 0 0 2 0 0 1
Neighs:    26895.5 ave 27076 max 26673 min
Histogram: 1 0 0 1 0 0 0 0 1 1

Total # of neighbors = 107582
Ave neighs/atom = 7.01912
Neighbor list builds = 21
Dangerous builds = 0
write_restart ../DEM/post/restart/liggghts.restartCFDEM
run 100    
Setting up run at Tue Aug  4 20:51:17 2020

Memory usage per processor = 24.2085 Mbytes
    Step    Atoms         KinEng            rke         Volume       centerOf       dragtota       dragtota       dragtota 
  355401    15327  8.9689006e-05  4.4018001e-05         0.0051   0.0032420475  0.00020402173  4.1742896e-05   0.0047813872 
CFD Coupling established at step 355500
  355500    15327  8.8859909e-05  4.2912338e-05         0.0051   0.0032426106  0.00020402173  4.1742896e-05   0.0047813872 
  355501    15327   8.884379e-05  4.2908815e-05         0.0051   0.0032426154  0.00020402173  4.1742896e-05   0.0047813872 
Loop time of 0.673152 on 4 procs for 100 steps with 15327 atoms, finish time Tue Aug  4 20:51:18 2020


Pair  time (%) = 0.220185 (32.7095)
Neigh time (%) = 0.133965 (19.9011)
Comm  time (%) = 0.0417655 (6.20447)
Outpt time (%) = 0.000590384 (0.0877044)
Other time (%) = 0.276647 (41.0972)

Nlocal:    3831.75 ave 3862 max 3797 min
Histogram: 1 0 1 0 0 0 0 0 1 1
Nghost:    769.75 ave 779 max 759 min
Histogram: 1 0 0 0 0 1 1 0 0 1
Neighs:    26883.8 ave 27075 max 26667 min
Histogram: 1 0 1 0 0 0 0 0 1 1

Total # of neighbors = 107535
Ave neighs/atom = 7.01605
Neighbor list builds = 16
Dangerous builds = 0
write_restart ../DEM/post/restart/liggghts.restartCFDEM
run 100    
Setting up run at Tue Aug  4 20:51:18 2020

Memory usage per processor = 24.2085 Mbytes
    Step    Atoms         KinEng            rke         Volume       centerOf       dragtota       dragtota       dragtota 
  355501    15327   8.884379e-05  4.2908815e-05         0.0051   0.0032426154  0.00018263714  6.6540137e-05    0.004808371 
CFD Coupling established at step 355600
  355600    15327  8.7843213e-05  4.2384328e-05         0.0051   0.0032430004  0.00018263714  6.6540137e-05    0.004808371 
  355601    15327  8.7867978e-05  4.2305249e-05         0.0051   0.0032430037  0.00018263714  6.6540137e-05    0.004808371 
Loop time of 0.595039 on 4 procs for 100 steps with 15327 atoms, finish time Tue Aug  4 20:51:18 2020


Pair  time (%) = 0.20578 (34.5827)
Neigh time (%) = 0.126449 (21.2506)
Comm  time (%) = 0.0212252 (3.56702)
Outpt time (%) = 0.000594497 (0.0999089)
Other time (%) = 0.240989 (40.4998)

Nlocal:    3831.75 ave 3862 max 3798 min
Histogram: 1 0 1 0 0 0 0 0 1 1
Nghost:    770.5 ave 780 max 760 min
Histogram: 1 0 0 0 0 2 0 0 0 1
Neighs:    26884.8 ave 27074 max 26671 min
Histogram: 1 0 1 0 0 0 0 0 1 1

Total # of neighbors = 107539
Ave neighs/atom = 7.01631
Neighbor list builds = 16
Dangerous builds = 0
write_restart ../DEM/post/restart/liggghts.restartCFDEM
run 100    
Setting up run at Tue Aug  4 20:51:19 2020

Memory usage per processor = 24.2085 Mbytes
    Step    Atoms         KinEng            rke         Volume       centerOf       dragtota       dragtota       dragtota 
  355601    15327  8.7867978e-05  4.2305249e-05         0.0051   0.0032430037  0.00015812047  2.5415373e-05   0.0047881276 
CFD Coupling established at step 355700
  355700    15327  8.7028166e-05  4.1942141e-05         0.0051   0.0032433095  0.00015812047  2.5415373e-05   0.0047881276 
  355701    15327  8.7019622e-05  4.1942263e-05         0.0051   0.0032433124  0.00015812047  2.5415373e-05   0.0047881276 
Loop time of 0.589896 on 4 procs for 100 steps with 15327 atoms, finish time Tue Aug  4 20:51:19 2020


Pair  time (%) = 0.205364 (34.8136)
Neigh time (%) = 0.126521 (21.4481)
Comm  time (%) = 0.0217593 (3.68867)
Outpt time (%) = 0.000549316 (0.0931209)
Other time (%) = 0.235702 (39.9565)

Nlocal:    3831.75 ave 3861 max 3799 min
[...]
Histogram: 1 0 1 0 0 0 1 0 0 1
Neighs:    29127.8 ave 29797 max 28137 min
Histogram: 1 0 0 0 0 0 1 1 0 1

Total # of neighbors = 116511
Ave neighs/atom = 6.9294
Neighbor list builds = 20
Dangerous builds = 0
write_restart ../DEM/post/restart/liggghts.restartCFDEM
run 100    
Setting up run at Tue Aug  4 21:23:31 2020

Memory usage per processor = 24.2628 Mbytes
    Step    Atoms         KinEng            rke         Volume       centerOf       dragtota       dragtota       dragtota 
  537701    16814  0.00012582203  8.9453628e-05         0.0051   0.0041153849 -0.00056955783 -0.00020279011    0.012814425 
CFD Coupling established at step 537800
  537800    16814  0.00011100805  8.6601269e-05         0.0051   0.0041138416 -0.00056955783 -0.00020279011    0.012814425 
  537801    16814  0.00011100345  8.6606632e-05         0.0051   0.0041138264 -0.00056955783 -0.00020279011    0.012814425 
Loop time of 0.605352 on 4 procs for 100 steps with 16814 atoms, finish time Tue Aug  4 21:23:31 2020


Pair  time (%) = 0.227897 (37.6471)
Neigh time (%) = 0.120598 (19.9219)
Comm  time (%) = 0.0228865 (3.78069)
Outpt time (%) = 0.0011363 (0.187709)
Other time (%) = 0.232834 (38.4626)

Nlocal:    4203.5 ave 4259 max 4141 min
Histogram: 1 1 0 0 0 0 0 0 0 2
Nghost:    866.25 ave 881 max 855 min
Histogram: 2 0 0 0 0 0 1 0 0 1
Neighs:    29128 ave 29801 max 28133 min
Histogram: 1 0 0 0 0 0 1 1 0 1

Total # of neighbors = 116512
Ave neighs/atom = 6.92946
Neighbor list builds = 14
Dangerous builds = 0
write_restart ../DEM/post/restart/liggghts.restartCFDEM
run 100    
Setting up run at Tue Aug  4 21:23:31 2020

Memory usage per processor = 24.2628 Mbytes
    Step    Atoms         KinEng            rke         Volume       centerOf       dragtota       dragtota       dragtota 
  537801    16814  0.00011100345  8.6606632e-05         0.0051   0.0041138264 -0.00057178763 -8.9932534e-05    0.012844037 
CFD Coupling established at step 537900
  537900    16814  0.00010910855   8.566179e-05         0.0051   0.0041122588 -0.00057178763 -8.9932534e-05    0.012844037 
  537901    16814  0.00010910206  8.5658859e-05         0.0051   0.0041122421 -0.00057178763 -8.9932534e-05    0.012844037 
Loop time of 0.57073 on 4 procs for 100 steps with 16814 atoms, finish time Tue Aug  4 21:23:32 2020


Pair  time (%) = 0.231175 (40.5052)
Neigh time (%) = 0.0942281 (16.5101)
Comm  time (%) = 0.021788 (3.81757)
Outpt time (%) = 0.000560403 (0.0981905)
Other time (%) = 0.222978 (39.069)

Nlocal:    4203.5 ave 4260 max 4140 min
Histogram: 1 1 0 0 0 0 0 0 0 2
Nghost:    867 ave 882 max 854 min
Histogram: 1 1 0 0 0 0 1 0 0 1
Neighs:    29129.5 ave 29797 max 28132 min
Histogram: 1 0 0 0 0 0 1 1 0 1

Total # of neighbors = 116518
Ave neighs/atom = 6.92982
Neighbor list builds = 11
Dangerous builds = 0
write_restart ../DEM/post/restart/liggghts.restartCFDEM
run 100    
Setting up run at Tue Aug  4 21:23:32 2020

Memory usage per processor = 24.2628 Mbytes
    Step    Atoms         KinEng            rke         Volume       centerOf       dragtota       dragtota       dragtota 
  537901    16814  0.00010910206  8.5658859e-05         0.0051   0.0041122421 -0.00057533001 -3.0179166e-05    0.012859494 
CFD Coupling established at step 538000
  538000    16814   0.0001064885  8.2609652e-05         0.0051   0.0041105965 -0.00057533001 -3.0179166e-05    0.012859494 
INFO: Particle insertion ins2: inserted 8 particle templates (mass 9.852035e-06) at step 538001
 - a total of 1544 particle templates (mass 1.901443e-03) inserted so far.
  538001    16822  0.00030078424  8.2610226e-05         0.0051   0.0041309514 -0.00057533001 -3.0179166e-05    0.012859494 
Loop time of 0.694914 on 4 procs for 100 steps with 16822 atoms, finish time Tue Aug  4 21:23:33 2020


Pair  time (%) = 0.229102 (32.9684)
Neigh time (%) = 0.105096 (15.1236)
Comm  time (%) = 0.0255533 (3.67719)
Outpt time (%) = 0.103164 (14.8456)
Other time (%) = 0.231999 (33.3853)

Nlocal:    4205.5 ave 4262 max 4142 min
Histogram: 1 1 0 0 0 0 0 0 0 2
Nghost:    866.25 ave 882 max 852 min
Histogram: 1 1 0 0 0 0 0 1 0 1
Neighs:    29135.5 ave 29814 max 28135 min
Histogram: 1 0 0 0 0 0 1 1 0 1

Total # of neighbors = 116542
Ave neighs/atom = 6.92795
Neighbor list builds = 12
Dangerous builds = 0
write_restart ../DEM/post/restart/liggghts.restartCFDEM
run 100    
Setting up run at Tue Aug  4 21:23:33 2020

Memory usage per processor = 24.2628 Mbytes
    Step    Atoms         KinEng            rke         Volume       centerOf       dragtota       dragtota       dragtota 
  538001    16822  0.00030078424  8.2610226e-05         0.0051    0.004129093 -0.00064483976 -4.1660241e-05    0.012943274 
CFD Coupling established at step 538100
  538100    16822  0.00027024187  0.00010519237         0.0051   0.0041286872 -0.00064483976 -4.1660241e-05    0.012943274 
  538101    16822  0.00027022612  0.00010519434         0.0051   0.0041286842 -0.00064483976 -4.1660241e-05    0.012943274 
Loop time of 1.07671 on 4 procs for 100 steps with 16822 atoms, finish time Tue Aug  4 21:23:34 2020


Pair  time (%) = 0.239752 (22.2671)
Neigh time (%) = 0.346942 (32.2224)
Comm  time (%) = 0.0624343 (5.79861)
Outpt time (%) = 0.00051707 (0.0480231)
Other time (%) = 0.427066 (39.664)

Nlocal:    4205.5 ave 4263 max 4143 min
Histogram: 1 1 0 0 0 0 0 0 0 2
Nghost:    867 ave 882 max 851 min
Histogram: 1 0 1 0 0 0 0 0 1 1
Neighs:    29134.5 ave 29807 max 28145 min
Histogram: 1 0 0 0 0 0 1 1 0 1

Total # of neighbors = 116538
Ave neighs/atom = 6.92771
Neighbor list builds = 40
Dangerous builds = 1
write_restart ../DEM/post/restart/liggghts.restartCFDEM
run 100    
Setting up run at Tue Aug  4 21:23:34 2020

Memory usage per processor = 24.2628 Mbytes
    Step    Atoms         KinEng            rke         Volume       centerOf       dragtota       dragtota       dragtota 
  538101    16822  0.00027022612  0.00010519434         0.0051   0.0041286842  -0.0004613532  2.0872737e-06    0.012760237 
CFD Coupling established at step 538200
  538200    16822  0.00021826465  0.00010431194         0.0051   0.0041283671  -0.0004613532  2.0872737e-06    0.012760237 
  538201    16822   0.0002212635  0.00010341857         0.0051   0.0041283634  -0.0004613532  2.0872737e-06    0.012760237 
Loop time of 0.969554 on 4 procs for 100 steps with 16822 atoms, finish time Tue Aug  4 21:23:35 2020


Pair  time (%) = 0.240696 (24.8254)
Neigh time (%) = 0.291324 (30.0472)
Comm  time (%) = 0.0572493 (5.90471)
Outpt time (%) = 0.000636816 (0.0656814)
Other time (%) = 0.379647 (39.1569)

Nlocal:    4205.5 ave 4263 max 4146 min
Histogram: 1 1 0 0 0 0 0 0 0 2
Nghost:    866.25 ave 876 max 852 min
Histogram: 1 0 0 1 0 0 0 0 0 2
Neighs:    29130.8 ave 29800 max 28143 min
Histogram: 1 0 0 0 0 0 1 1 0 1

Total # of neighbors = 116523
Ave neighs/atom = 6.92682
Neighbor list builds = 33
Dangerous builds = 0
write_restart ../DEM/post/restart/liggghts.restartCFDEM
run 100    
Setting up run at Tue Aug  4 21:23:35 2020

Memory usage per processor = 24.2628 Mbytes
    Step    Atoms         KinEng            rke         Volume       centerOf       dragtota       dragtota       dragtota 
  538201    16822   0.0002212635  0.00010341857         0.0051   0.0041283634 -0.00046230001  0.00017728202    0.012872461 
CFD Coupling established at step 538300
  538300    16822  0.00015920715  9.9216183e-05         0.0051   0.0041279817 -0.00046230001  0.00017728202    0.012872461 
  538301    16822  0.00015919441  9.9216563e-05         0.0051   0.0041279743 -0.00046230001  0.00017728202    0.012872461 
Loop time of 0.731659 on 4 procs for 100 steps with 16822 atoms, finish time Tue Aug  4 21:23:36 2020


Pair  time (%) = 0.232775 (31.8147)
Neigh time (%) = 0.181479 (24.8038)
Comm  time (%) = 0.0307179 (4.19839)
Outpt time (%) = 0.00053376 (0.072952)
Other time (%) = 0.286153 (39.1102)

Nlocal:    4205.5 ave 4265 max 4145 min
Histogram: 1 1 0 0 0 0 0 0 1 1
Nghost:    866 ave 875 max 850 min
Histogram: 1 0 0 0 0 1 0 0 0 2
Neighs:    29130.2 ave 29811 max 28129 min
Histogram: 1 0 0 0 0 0 1 1 0 1

Total # of neighbors = 116521
Ave neighs/atom = 6.9267
Neighbor list builds = 21
Dangerous builds = 0
write_restart ../DEM/post/restart/liggghts.restartCFDEM
run 100    
Setting up run at Tue Aug  4 21:23:36 2020

Memory usage per processor = 24.2628 Mbytes
    Step    Atoms         KinEng            rke         Volume       centerOf       dragtota       dragtota       dragtota 
  538301    16822  0.00015919441  9.9216563e-05         0.0051   0.0041279743 -0.00044390606 -8.6776856e-05    0.012939936 
CFD Coupling established at step 538400
  538400    16822  0.00015115035  9.4846909e-05         0.0051    0.004127244 -0.00044390606 -8.6776856e-05    0.012939936 
  538401    16822  0.00015113131  9.4851511e-05         0.0051   0.0041272373 -0.00044390606 -8.6776856e-05    0.012939936 
Loop time of 0.657798 on 4 procs for 100 steps with 16822 atoms, finish time Tue Aug  4 21:23:37 2020


Pair  time (%) = 0.233189 (35.4499)
Neigh time (%) = 0.138068 (20.9894)
Comm  time (%) = 0.0269597 (4.09848)
Outpt time (%) = 0.00067389 (0.102446)
Other time (%) = 0.258908 (39.3598)

Nlocal:    4205.5 ave 4267 max 4142 min
Histogram: 1 1 0 0 0 0 0 0 0 2
Nghost:    865 ave 879 max 850 min
Histogram: 1 0 1 0 0 0 0 1 0 1
Neighs:    29130.5 ave 29804 max 28130 min
Histogram: 1 0 0 0 0 0 1 1 0 1

Total # of neighbors = 116522
Ave neighs/atom = 6.92676
Neighbor list builds = 16
Dangerous builds = 0
write_restart ../DEM/post/restart/liggghts.restartCFDEM
run 100    
Setting up run at Tue Aug  4 21:23:37 2020

Memory usage per processor = 24.2628 Mbytes
    Step    Atoms         KinEng            rke         Volume       centerOf       dragtota       dragtota       dragtota 
  538401    16822  0.00015113131  9.4851511e-05         0.0051   0.0041272373 -0.00045611421 -8.5940381e-05    0.012989167 
CFD Coupling established at step 538500
  538500    16822  0.00014300559  8.9654902e-05         0.0051   0.0041265716 -0.00045611421 -8.5940381e-05    0.012989167 
  538501    16822  0.00014295609  8.9630668e-05         0.0051   0.0041265628 -0.00045611421 -8.5940381e-05    0.012989167 
Loop time of 0.644472 on 4 procs for 100 steps with 16822 atoms, finish time Tue Aug  4 21:23:38 2020


Pair  time (%) = 0.229959 (35.6817)
Neigh time (%) = 0.136584 (21.1932)
Comm  time (%) = 0.0257891 (4.00159)
Outpt time (%) = 0.000532687 (0.0826547)
Other time (%) = 0.251607 (39.0408)

Nlocal:    4205.5 ave 4266 max 4143 min
Histogram: 1 1 0 0 0 0 0 0 0 2
Nghost:    864.5 ave 879 max 851 min
Histogram: 1 0 1 0 0 0 1 0 0 1
Neighs:    29133.8 ave 29794 max 28133 min
Histogram: 1 0 0 0 0 0 1 1 0 1

Total # of neighbors = 116535
Ave neighs/atom = 6.92754
Neighbor list builds = 16
Dangerous builds = 0
write_restart ../DEM/post/restart/liggghts.restartCFDEM
run 100    
Setting up run at Tue Aug  4 21:23:38 2020

Memory usage per processor = 24.2628 Mbytes
    Step    Atoms         KinEng            rke         Volume       centerOf       dragtota       dragtota       dragtota 
  538501    16822  0.00014295609  8.9630668e-05         0.0051   0.0041265628 -0.00042657339 -9.5928849e-05    0.012965898 
CFD Coupling established at step 538600
  538600    16822  0.00012410059  8.7442878e-05         0.0051   0.0041254351 -0.00042657339 -9.5928849e-05    0.012965898 
  538601    16822  0.00012409122  8.7442241e-05         0.0051    0.004125422 -0.00042657339 -9.5928849e-05    0.012965898 
Loop time of 0.677317 on 4 procs for 100 steps with 16822 atoms, finish time Tue Aug  4 21:23:39 2020


Pair  time (%) = 0.238024 (35.1421)
Neigh time (%) = 0.141136 (20.8374)
Comm  time (%) = 0.0318075 (4.69611)
Outpt time (%) = 0.000633299 (0.0935011)
Other time (%) = 0.265718 (39.2309)

Nlocal:    4205.5 ave 4266 max 4143 min
Histogram: 1 1 0 0 0 0 0 0 0 2
Nghost:    864.25 ave 879 max 851 min
Histogram: 1 0 1 0 0 0 1 0 0 1
Neighs:    29133.8 ave 29791 max 28131 min
Histogram: 1 0 0 0 0 0 1 1 0 1

Total # of neighbors = 116535
Ave neighs/atom = 6.92754
Neighbor list builds = 16
Dangerous builds = 0
write_restart ../DEM/post/restart/liggghts.restartCFDEM
run 100    
Setting up run at Tue Aug  4 21:23:39 2020

Memory usage per processor = 24.2628 Mbytes
    Step    Atoms         KinEng            rke         Volume       centerOf       dragtota       dragtota       dragtota 
  538601    16822  0.00012409122  8.7442241e-05         0.0051    0.004125422 -0.00043983879 -0.00016092916    0.012917936 
CFD Coupling established at step 538700
  538700    16822  0.00012226724  8.7044154e-05         0.0051   0.0041241221 -0.00043983879 -0.00016092916    0.012917936 
  538701    16822  0.00012225777  8.7040506e-05         0.0051   0.0041241081 -0.00043983879 -0.00016092916    0.012917936 
Loop time of 0.654488 on 4 procs for 100 steps with 16822 atoms, finish time Tue Aug  4 21:23:39 2020


Pair  time (%) = 0.23361 (35.6935)
Neigh time (%) = 0.138968 (21.233)
Comm  time (%) = 0.0253584 (3.87454)
Outpt time (%) = 0.00112277 (0.17155)
Other time (%) = 0.255429 (39.0274)

Nlocal:    4205.5 ave 4266 max 4142 min
Histogram: 1 1 0 0 0 0 0 0 0 2
Nghost:    865.5 ave 879 max 852 min
Histogram: 1 0 1 0 0 0 0 1 0 1
Neighs:    29135.5 ave 29795 max 28131 min
Histogram: 1 0 0 0 0 0 1 1 0 1

Total # of neighbors = 116542
Ave neighs/atom = 6.92795
Neighbor list builds = 16
Dangerous builds = 0
write_restart ../DEM/post/restart/liggghts.restartCFDEM
run 100    
Setting up run at Tue Aug  4 21:23:40 2020

Memory usage per processor = 24.2628 Mbytes
    Step    Atoms         KinEng            rke         Volume       centerOf       dragtota       dragtota       dragtota 
  538701    16822  0.00012225777  8.7040506e-05         0.0051   0.0041241081 -0.00043423201 -0.00015408309    0.012909206 
CFD Coupling established at step 538800
  538800    16822   0.0001167691  8.5754318e-05         0.0051    0.004122542 -0.00043423201 -0.00015408309    0.012909206 
  538801    16822  0.00011673313  8.5709003e-05         0.0051   0.0041225254 -0.00043423201 -0.00015408309    0.012909206 
Loop time of 0.664233 on 4 procs for 100 steps with 16822 atoms, finish time Tue Aug  4 21:23:40 2020


Pair  time (%) = 0.238393 (35.89)
Neigh time (%) = 0.138338 (20.8268)
Comm  time (%) = 0.0250549 (3.772)
Outpt time (%) = 0.000549734 (0.0827621)
Other time (%) = 0.261897 (39.4284)

Nlocal:    4205.5 ave 4265 max 4140 min
Histogram: 1 1 0 0 0 0 0 0 0 2
Nghost:    864.5 ave 875 max 853 min
Histogram: 1 0 1 0 0 0 0 0 1 1
Neighs:    29139.8 ave 29798 max 28136 min
Histogram: 1 0 0 0 0 0 1 1 0 1

Total # of neighbors = 116559
Ave neighs/atom = 6.92896
Neighbor list builds = 16
Dangerous builds = 0
write_restart ../DEM/post/restart/liggghts.restartCFDEM
run 100    
Setting up run at Tue Aug  4 21:23:40 2020

Memory usage per processor = 24.2628 Mbytes
    Step    Atoms         KinEng            rke         Volume       centerOf       dragtota       dragtota       dragtota 
  538801    16822  0.00011673313  8.5709003e-05         0.0051   0.0041225254 -0.00043027785  -0.0001402763    0.012924588 
CFD Coupling established at step 538900
  538900    16822  0.00011609302  8.4637634e-05         0.0051    0.004120898 -0.00043027785  -0.0001402763    0.012924588 
  538901    16822  0.00011608091  8.4637182e-05         0.0051   0.0041208819 -0.00043027785  -0.0001402763    0.012924588 
Loop time of 0.676123 on 4 procs for 100 steps with 16822 atoms, finish time Tue Aug  4 21:23:41 2020


Pair  time (%) = 0.238856 (35.3273)
Neigh time (%) = 0.140907 (20.8405)
Comm  time (%) = 0.0311232 (4.60319)
Outpt time (%) = 0.000877678 (0.12981)
Other time (%) = 0.264359 (39.0993)

Nlocal:    4205.5 ave 4264 max 4140 min
Histogram: 1 1 0 0 0 0 0 0 0 2
Nghost:    866 ave 877 max 854 min
Histogram: 1 0 1 0 0 0 0 0 1 1
Neighs:    29138.8 ave 29793 max 28131 min
Histogram: 1 0 0 0 0 0 1 1 0 1

Total # of neighbors = 116555
Ave neighs/atom = 6.92872
Neighbor list builds = 16
Dangerous builds = 0
write_restart ../DEM/post/restart/liggghts.restartCFDEM
run 100    
Setting up run at Tue Aug  4 21:23:41 2020

Memory usage per processor = 24.2628 Mbytes
    Step    Atoms         KinEng            rke         Volume       centerOf       dragtota       dragtota       dragtota 
  538901    16822  0.00011608091  8.4637182e-05         0.0051   0.0041208819 -0.00044115738 -0.00017998304    0.012924407 
CFD Coupling established at step 539000
  539000    16822  0.00011432911  8.4062263e-05         0.0051   0.0041193144 -0.00044115738 -0.00017998304    0.012924407 
INFO: Particle insertion ins2: inserted 8 particle templates (mass 9.852035e-06) at step 539001
 - a total of 1552 particle templates (mass 1.911295e-03) inserted so far.
  539001    16830   0.0002025093  8.4059295e-05         0.0051   0.0041408537 -0.00044115738 -0.00017998304    0.012924407 
Loop time of 0.784838 on 4 procs for 100 steps with 16830 atoms, finish time Tue Aug  4 21:23:42 2020


Pair  time (%) = 0.234686 (29.9025)
Neigh time (%) = 0.14822 (18.8855)
Comm  time (%) = 0.0265307 (3.3804)
Outpt time (%) = 0.114753 (14.6213)
Other time (%) = 0.260647 (33.2103)

Nlocal:    4207.5 ave 4263 max 4146 min
Histogram: 1 1 0 0 0 0 0 0 0 2
Nghost:    867.5 ave 878 max 856 min
Histogram: 1 0 1 0 0 0 0 0 1 1
Neighs:    29143 ave 29797 max 28138 min
Histogram: 1 0 0 0 0 0 1 1 0 1

Total # of neighbors = 116572
Ave neighs/atom = 6.92644
Neighbor list builds = 17
Dangerous builds = 0
write_restart ../DEM/post/restart/liggghts.restartCFDEM
run 100    
Setting up run at Tue Aug  4 21:23:42 2020

Memory usage per processor = 24.2628 Mbytes
    Step    Atoms         KinEng            rke         Volume       centerOf       dragtota       dragtota       dragtota 
  539001    16830   0.0002025093  8.4059295e-05         0.0051   0.0041389918 -0.00032407927 -0.00018627629    0.013024946 
CFD Coupling established at step 539100
  539100    16830   0.0004033492  0.00010249116         0.0051   0.0041372385 -0.00032407927 -0.00018627629    0.013024946 
  539101    16830   0.0004033365  0.00010244682         0.0051   0.0041372191 -0.00032407927 -0.00018627629    0.013024946 
Loop time of 1.22692 on 4 procs for 100 steps with 16830 atoms, finish time Tue Aug  4 21:23:43 2020


Pair  time (%) = 0.243107 (19.8144)
Neigh time (%) = 0.429118 (34.9752)
Comm  time (%) = 0.0665847 (5.42698)
Outpt time (%) = 0.000923336 (0.0752564)
Other time (%) = 0.487188 (39.7082)

Nlocal:    4207.5 ave 4263 max 4148 min
Histogram: 1 1 0 0 0 0 0 0 0 2
Nghost:    867 ave 877 max 856 min
Histogram: 1 0 1 0 0 0 0 0 1 1
Neighs:    29144.8 ave 29794 max 28143 min
Histogram: 1 0 0 0 0 0 1 1 0 1

Total # of neighbors = 116579
Ave neighs/atom = 6.92686
Neighbor list builds = 50
Dangerous builds = 0
write_restart ../DEM/post/restart/liggghts.restartCFDEM
run 100    
Setting up run at Tue Aug  4 21:23:44 2020

Memory usage per processor = 24.2628 Mbytes
    Step    Atoms         KinEng            rke         Volume       centerOf       dragtota       dragtota       dragtota 
  539101    16830   0.0004033365  0.00010244682         0.0051   0.0041372191  0.00030084378 -0.00037430026    0.013199048 
CFD Coupling established at step 539200
  539200    16830  0.00038933085  0.00010177796         0.0051   0.0041353044  0.00030084378 -0.00037430026    0.013199048 
  539201    16830  0.00038921252  0.00010177416         0.0051   0.0041352849  0.00030084378 -0.00037430026    0.013199048 
Loop time of 1.24774 on 4 procs for 100 steps with 16830 atoms, finish time Tue Aug  4 21:23:45 2020


Pair  time (%) = 0.247701 (19.852)
Neigh time (%) = 0.437893 (35.0949)
Comm  time (%) = 0.0676594 (5.42256)
Outpt time (%) = 0.00128311 (0.102835)
Other time (%) = 0.493204 (39.5278)

Nlocal:    4207.5 ave 4262 max 4150 min
Histogram: 1 1 0 0 0 0 0 0 0 2
Nghost:    867.25 ave 875 max 858 min
Histogram: 1 0 1 0 0 0 0 0 0 2
Neighs:    29147 ave 29802 max 28149 min
Histogram: 1 0 0 0 0 0 1 1 0 1

Total # of neighbors = 116588
Ave neighs/atom = 6.92739
Neighbor list builds = 50
Dangerous builds = 0
